# vtk DataFile Version 3.0
blackoil-framework Step 5C 2D output
ASCII
DATASET RECTILINEAR_GRID
DIMENSIONS 7 6 2
X_COORDINATES 7 float
0.000000000e+00 5.000000000e+01 1.000000000e+02 1.500000000e+02 2.000000000e+02 2.500000000e+02 3.000000000e+02
Y_COORDINATES 6 float
0.000000000e+00 5.000000000e+01 1.000000000e+02 1.500000000e+02 2.000000000e+02 2.500000000e+02
Z_COORDINATES 2 float
0.000000000e+00 1.800000000e+01
CELL_DATA 30
SCALARS pressure_bar float 1
LOOKUP_TABLE default
2.351436633e+02
2.541710541e+02
2.868277207e+02
1.980011001e+02
2.041067056e+02
2.491334077e+02
2.928472423e+02
2.966292352e+02
3.017853649e+02
2.964333839e+02
2.732336053e+02
2.553672846e+02
2.863435589e+02
2.920203477e+02
2.953643353e+02
2.947418289e+02
2.849688672e+02
2.758174674e+02
2.774097064e+02
2.814503520e+02
2.832200670e+02
2.795268290e+02
2.582471920e+02
2.283349045e+02
2.238166201e+02
2.175933775e+02
2.199994603e+02
2.573028789e+02
2.648867803e+02
2.646979137e+02
SCALARS water_saturation float 1
LOOKUP_TABLE default
2.159532343e-01
2.154210315e-01
2.145152461e-01
2.169973326e-01
2.167924475e-01
2.145637327e-01
2.138187934e-01
2.138610908e-01
2.138961983e-01
2.141158035e-01
2.149096274e-01
2.153939947e-01
2.143412193e-01
2.141358187e-01
2.141876887e-01
2.141971896e-01
2.145937510e-01
2.148406235e-01
2.147971337e-01
2.146869611e-01
2.146410802e-01
2.147406807e-01
2.153189583e-01
2.161408075e-01
2.162557327e-01
2.164294934e-01
2.163679957e-01
2.153311133e-01
2.151335133e-01
2.151384470e-01
SCALARS oil_saturation float 1
LOOKUP_TABLE default
7.840467657e-01
7.845789685e-01
7.854847539e-01
7.603441183e-01
7.832075525e-01
7.854362673e-01
7.861812066e-01
7.861389092e-01
7.861038017e-01
7.858841965e-01
7.850903726e-01
7.846060053e-01
7.856587807e-01
7.858641813e-01
7.858123113e-01
7.858028104e-01
7.854062490e-01
7.851593765e-01
7.852028663e-01
7.853130389e-01
7.853589198e-01
7.852593193e-01
7.846810417e-01
7.838591925e-01
7.837442673e-01
7.835705066e-01
7.836320043e-01
7.479092428e-01
7.552447821e-01
7.550838529e-01
SCALARS gas_saturation float 1
LOOKUP_TABLE default
0.000000000e+00
0.000000000e+00
0.000000000e+00
2.265854904e-02
0.000000000e+00
0.000000000e+00
0.000000000e+00
0.000000000e+00
0.000000000e+00
0.000000000e+00
0.000000000e+00
0.000000000e+00
0.000000000e+00
0.000000000e+00
0.000000000e+00
0.000000000e+00
0.000000000e+00
0.000000000e+00
0.000000000e+00
0.000000000e+00
0.000000000e+00
0.000000000e+00
0.000000000e+00
0.000000000e+00
0.000000000e+00
0.000000000e+00
0.000000000e+00
3.675964391e-02
2.962170458e-02
2.977770011e-02
SCALARS solution_gas_ratio float 1
LOOKUP_TABLE default
1.250000000e+02
1.249999999e+02
1.250000000e+02
1.236407481e+02
1.274640233e+02
1.250000000e+02
1.250000000e+02
1.250000000e+02
1.250000000e+02
1.250000005e+02
1.250000004e+02
1.250000002e+02
1.249999999e+02
1.250000000e+02
1.250000018e+02
1.250001318e+02
1.250000841e+02
1.250000312e+02
1.250000000e+02
1.250000016e+02
1.250004660e+02
1.249275836e+02
1.250610064e+02
1.251774456e+02
1.250000000e+02
1.250001690e+02
1.257460612e+02
1.559211516e+02
1.589547121e+02
1.588791655e+02
SCALARS kx_md float 1
LOOKUP_TABLE default
4.790864805e+01
4.790864805e+01
4.790864805e+01
4.790864805e+01
4.790864805e+01
4.790864805e+01
1.086108495e+02
1.086108495e+02
1.086108495e+02
1.086108495e+02
1.086108495e+02
1.086108495e+02
2.131878085e+02
2.131878085e+02
2.131878085e+02
2.131878085e+02
2.131878085e+02
2.131878085e+02
1.671966900e+02
1.671966900e+02
1.671966900e+02
1.671966900e+02
1.671966900e+02
1.671966900e+02
6.718117810e+01
6.718117810e+01
6.718117810e+01
6.718117810e+01
6.718117810e+01
6.718117810e+01
SCALARS ky_md float 1
LOOKUP_TABLE default
1.676802682e+01
1.676802682e+01
1.676802682e+01
1.676802682e+01
1.676802682e+01
1.676802682e+01
3.801379732e+01
3.801379732e+01
3.801379732e+01
3.801379732e+01
3.801379732e+01
3.801379732e+01
7.461573298e+01
7.461573298e+01
7.461573298e+01
7.461573298e+01
7.461573298e+01
7.461573298e+01
5.851884151e+01
5.851884151e+01
5.851884151e+01
5.851884151e+01
5.851884151e+01
5.851884151e+01
2.351341233e+01
2.351341233e+01
2.351341233e+01
2.351341233e+01
2.351341233e+01
2.351341233e+01
