# vtk DataFile Version 3.0
blackoil-framework Step 5C 2D output
ASCII
DATASET RECTILINEAR_GRID
DIMENSIONS 6 5 2
X_COORDINATES 6 float
0.000000000e+00 5.000000000e+01 1.000000000e+02 1.500000000e+02 2.000000000e+02 2.500000000e+02
Y_COORDINATES 5 float
0.000000000e+00 5.000000000e+01 1.000000000e+02 1.500000000e+02 2.000000000e+02
Z_COORDINATES 2 float
0.000000000e+00 1.800000000e+01
CELL_DATA 20
SCALARS pressure_bar float 1
LOOKUP_TABLE default
3.102436562e+02
2.097615837e+02
3.417673897e+02
1.930647349e+02
3.107246022e+02
2.461002814e+02
1.955484501e+02
2.090011054e+02
1.899916262e+02
2.313497160e+02
2.848851261e+02
2.082037008e+02
2.826740533e+02
2.406023489e+02
2.632574608e+02
2.650613718e+02
1.992399184e+02
2.009853868e+02
2.925016147e+02
2.712570130e+02
SCALARS water_saturation float 1
LOOKUP_TABLE default
2.086925954e-01
2.114639850e-01
2.065000147e-01
2.119086214e-01
2.082856803e-01
2.105125638e-01
2.081867928e-01
2.115388131e-01
2.066860472e-01
2.109122686e-01
2.068245277e-01
2.115407082e-01
2.065539510e-01
2.106444639e-01
2.100403889e-01
2.099981119e-01
2.104318461e-01
2.117000907e-01
2.081424952e-01
2.098391630e-01
SCALARS oil_saturation float 1
LOOKUP_TABLE default
7.913074046e-01
7.885360150e-01
7.934999853e-01
7.880913786e-01
7.917143197e-01
7.894874362e-01
7.894664265e-01
7.602083077e-01
7.818783134e-01
7.890877314e-01
7.931754723e-01
7.884592918e-01
7.934460490e-01
7.893555361e-01
7.899596111e-01
7.900018881e-01
7.895681539e-01
7.882999093e-01
7.918575048e-01
7.777806786e-01
SCALARS gas_saturation float 1
LOOKUP_TABLE default
0.000000000e+00
0.000000000e+00
0.000000000e+00
0.000000000e+00
0.000000000e+00
0.000000000e+00
2.346780741e-03
2.825287915e-02
1.143563934e-02
0.000000000e+00
0.000000000e+00
0.000000000e+00
0.000000000e+00
0.000000000e+00
0.000000000e+00
0.000000000e+00
0.000000000e+00
0.000000000e+00
0.000000000e+00
1.238015835e-02
SCALARS solution_gas_ratio float 1
LOOKUP_TABLE default
1.200000001e+02
1.200000000e+02
1.200000001e+02
1.200000057e+02
1.200000000e+02
1.240886078e+02
1.219729461e+02
1.304006632e+02
1.181943058e+02
1.254659680e+02
1.199999999e+02
1.299222205e+02
1.199999999e+02
1.200001132e+02
1.200296008e+02
1.200000000e+02
1.200015011e+02
1.200000201e+02
1.200007244e+02
1.615028052e+02
SCALARS kx_md float 1
LOOKUP_TABLE default
3.500000000e+01
3.500000000e+01
3.500000000e+01
3.500000000e+01
3.500000000e+01
1.400000000e+02
1.400000000e+02
1.400000000e+02
1.400000000e+02
1.400000000e+02
6.000000000e+01
6.000000000e+01
6.000000000e+01
6.000000000e+01
6.000000000e+01
6.000000000e+01
6.000000000e+01
6.000000000e+01
6.000000000e+01
6.000000000e+01
SCALARS ky_md float 1
LOOKUP_TABLE default
1.050000000e+01
1.050000000e+01
1.050000000e+01
1.050000000e+01
1.050000000e+01
4.200000000e+01
4.200000000e+01
4.200000000e+01
4.200000000e+01
4.200000000e+01
1.800000000e+01
1.800000000e+01
1.800000000e+01
1.800000000e+01
1.800000000e+01
1.800000000e+01
1.800000000e+01
1.800000000e+01
1.800000000e+01
1.800000000e+01
