# vtk DataFile Version 3.0
blackoil-framework 3D rectilinear-grid output
ASCII
DATASET RECTILINEAR_GRID
DIMENSIONS 6 5 4
X_COORDINATES 6 float
0.000000000e+00 5.200000000e+01 1.040000000e+02 1.560000000e+02 2.080000000e+02 2.600000000e+02
Y_COORDINATES 5 float
0.000000000e+00 5.500000000e+01 1.100000000e+02 1.650000000e+02 2.200000000e+02
Z_COORDINATES 4 float
0.000000000e+00 1.200000000e+01 2.400000000e+01 3.600000000e+01
CELL_DATA 60
SCALARS active float 1
LOOKUP_TABLE default
1.000000000e+00
1.000000000e+00
1.000000000e+00
1.000000000e+00
1.000000000e+00
1.000000000e+00
1.000000000e+00
1.000000000e+00
1.000000000e+00
1.000000000e+00
1.000000000e+00
1.000000000e+00
1.000000000e+00
1.000000000e+00
1.000000000e+00
1.000000000e+00
1.000000000e+00
1.000000000e+00
1.000000000e+00
1.000000000e+00
1.000000000e+00
1.000000000e+00
1.000000000e+00
1.000000000e+00
1.000000000e+00
1.000000000e+00
1.000000000e+00
1.000000000e+00
1.000000000e+00
1.000000000e+00
1.000000000e+00
1.000000000e+00
1.000000000e+00
1.000000000e+00
1.000000000e+00
1.000000000e+00
1.000000000e+00
1.000000000e+00
1.000000000e+00
1.000000000e+00
0.000000000e+00
1.000000000e+00
1.000000000e+00
1.000000000e+00
1.000000000e+00
1.000000000e+00
1.000000000e+00
1.000000000e+00
1.000000000e+00
1.000000000e+00
1.000000000e+00
1.000000000e+00
1.000000000e+00
1.000000000e+00
1.000000000e+00
1.000000000e+00
1.000000000e+00
1.000000000e+00
1.000000000e+00
1.000000000e+00
SCALARS zone_id float 1
LOOKUP_TABLE default
1.000000000e+00
1.000000000e+00
1.000000000e+00
1.000000000e+00
1.000000000e+00
1.000000000e+00
1.000000000e+00
1.000000000e+00
1.000000000e+00
1.000000000e+00
1.000000000e+00
1.000000000e+00
1.000000000e+00
1.000000000e+00
1.000000000e+00
1.000000000e+00
1.000000000e+00
1.000000000e+00
1.000000000e+00
1.000000000e+00
2.000000000e+00
2.000000000e+00
2.000000000e+00
2.000000000e+00
2.000000000e+00
2.000000000e+00
2.000000000e+00
2.000000000e+00
2.000000000e+00
2.000000000e+00
2.000000000e+00
2.000000000e+00
2.000000000e+00
2.000000000e+00
2.000000000e+00
2.000000000e+00
2.000000000e+00
2.000000000e+00
2.000000000e+00
2.000000000e+00
3.000000000e+00
3.000000000e+00
3.000000000e+00
3.000000000e+00
3.000000000e+00
3.000000000e+00
3.000000000e+00
3.000000000e+00
3.000000000e+00
3.000000000e+00
3.000000000e+00
3.000000000e+00
3.000000000e+00
3.000000000e+00
3.000000000e+00
3.000000000e+00
3.000000000e+00
3.000000000e+00
3.000000000e+00
3.000000000e+00
SCALARS fault_indicator float 1
LOOKUP_TABLE default
0.000000000e+00
0.000000000e+00
0.000000000e+00
0.000000000e+00
0.000000000e+00
0.000000000e+00
0.000000000e+00
1.000000000e+00
1.000000000e+00
0.000000000e+00
0.000000000e+00
0.000000000e+00
1.000000000e+00
1.000000000e+00
0.000000000e+00
0.000000000e+00
0.000000000e+00
1.000000000e+00
1.000000000e+00
0.000000000e+00
1.000000000e+00
1.000000000e+00
1.000000000e+00
1.000000000e+00
1.000000000e+00
0.000000000e+00
1.000000000e+00
1.000000000e+00
1.000000000e+00
1.000000000e+00
0.000000000e+00
1.000000000e+00
1.000000000e+00
1.000000000e+00
1.000000000e+00
0.000000000e+00
1.000000000e+00
1.000000000e+00
1.000000000e+00
1.000000000e+00
1.000000000e+00
1.000000000e+00
1.000000000e+00
1.000000000e+00
1.000000000e+00
1.000000000e+00
1.000000000e+00
1.000000000e+00
1.000000000e+00
1.000000000e+00
0.000000000e+00
1.000000000e+00
1.000000000e+00
1.000000000e+00
1.000000000e+00
0.000000000e+00
1.000000000e+00
1.000000000e+00
1.000000000e+00
1.000000000e+00
SCALARS porosity float 1
LOOKUP_TABLE default
2.480778528e-01
2.480778528e-01
2.480778528e-01
2.480778528e-01
2.480778528e-01
2.249512446e-01
2.249512446e-01
2.249512446e-01
2.249512446e-01
2.249512446e-01
2.333256879e-01
2.333256879e-01
2.333256879e-01
2.333256879e-01
2.333256879e-01
2.550000000e-01
2.550000000e-01
2.550000000e-01
2.550000000e-01
2.550000000e-01
2.117571501e-01
2.117571501e-01
2.117571501e-01
2.117571501e-01
2.117571501e-01
1.600000000e-01
1.600000000e-01
1.600000000e-01
1.600000000e-01
1.600000000e-01
1.804713806e-01
1.804713806e-01
1.804713806e-01
1.804713806e-01
1.804713806e-01
2.249193819e-01
2.249193819e-01
2.249193819e-01
2.249193819e-01
2.249193819e-01
1.985554711e-01
1.985554711e-01
1.985554711e-01
1.985554711e-01
1.985554711e-01
1.690497071e-01
1.690497071e-01
1.690497071e-01
1.690497071e-01
1.690497071e-01
1.799504631e-01
1.799504631e-01
1.799504631e-01
1.799504631e-01
1.799504631e-01
2.070594129e-01
2.070594129e-01
2.070594129e-01
2.070594129e-01
2.070594129e-01
SCALARS pore_volume_m3 float 1
LOOKUP_TABLE default
8.514031907e+03
8.514031907e+03
8.514031907e+03
8.514031907e+03
8.514031907e+03
7.720326715e+03
7.720326715e+03
7.720326715e+03
7.720326715e+03
7.720326715e+03
8.007737608e+03
8.007737608e+03
8.007737608e+03
8.007737608e+03
8.007737608e+03
8.751600000e+03
8.751600000e+03
8.751600000e+03
8.751600000e+03
8.751600000e+03
7.267505393e+03
7.267505393e+03
7.267505393e+03
7.267505393e+03
7.267505393e+03
5.491200000e+03
5.491200000e+03
5.491200000e+03
5.491200000e+03
5.491200000e+03
6.193777782e+03
6.193777782e+03
6.193777782e+03
6.193777782e+03
6.193777782e+03
7.719233188e+03
7.719233188e+03
7.719233188e+03
7.719233188e+03
7.719233188e+03
0.000000000e+00
6.814423768e+03
6.814423768e+03
6.814423768e+03
6.814423768e+03
5.801785946e+03
5.801785946e+03
5.801785946e+03
5.801785946e+03
5.801785946e+03
6.175899895e+03
6.175899895e+03
6.175899895e+03
6.175899895e+03
6.175899895e+03
7.106279050e+03
7.106279050e+03
7.106279050e+03
7.106279050e+03
7.106279050e+03
SCALARS kx_mD float 1
LOOKUP_TABLE default
2.001167515e+02
2.001167515e+02
2.001167515e+02
2.001167515e+02
2.001167515e+02
1.595010467e+02
1.595010467e+02
1.595010467e+02
1.595010467e+02
1.595010467e+02
1.731565272e+02
1.731565272e+02
1.731565272e+02
1.731565272e+02
1.731565272e+02
2.141765694e+02
2.141765694e+02
2.141765694e+02
2.141765694e+02
2.141765694e+02
1.401381492e+02
1.401381492e+02
1.401381492e+02
1.401381492e+02
1.401381492e+02
8.434700636e+01
8.434700636e+01
8.434700636e+01
8.434700636e+01
8.434700636e+01
1.031046487e+02
1.031046487e+02
1.031046487e+02
1.031046487e+02
1.031046487e+02
1.594512035e+02
1.594512035e+02
1.594512035e+02
1.594512035e+02
1.594512035e+02
1.231166833e+02
1.231166833e+02
1.231166833e+02
1.231166833e+02
1.231166833e+02
9.217680335e+01
9.217680335e+01
9.217680335e+01
9.217680335e+01
9.217680335e+01
1.025791571e+02
1.025791571e+02
1.025791571e+02
1.025791571e+02
1.025791571e+02
1.338270497e+02
1.338270497e+02
1.338270497e+02
1.338270497e+02
1.338270497e+02
SCALARS ky_mD float 1
LOOKUP_TABLE default
1.400817260e+02
1.400817260e+02
1.400817260e+02
1.400817260e+02
1.400817260e+02
1.116507327e+02
1.116507327e+02
1.116507327e+02
1.116507327e+02
1.116507327e+02
1.212095691e+02
1.212095691e+02
1.212095691e+02
1.212095691e+02
1.212095691e+02
1.499235986e+02
1.499235986e+02
1.499235986e+02
1.499235986e+02
1.499235986e+02
9.809670446e+01
9.809670446e+01
9.809670446e+01
9.809670446e+01
9.809670446e+01
5.904290445e+01
5.904290445e+01
5.904290445e+01
5.904290445e+01
5.904290445e+01
7.217325411e+01
7.217325411e+01
7.217325411e+01
7.217325411e+01
7.217325411e+01
1.116158425e+02
1.116158425e+02
1.116158425e+02
1.116158425e+02
1.116158425e+02
8.618167833e+01
8.618167833e+01
8.618167833e+01
8.618167833e+01
8.618167833e+01
6.452376235e+01
6.452376235e+01
6.452376235e+01
6.452376235e+01
6.452376235e+01
7.180540996e+01
7.180540996e+01
7.180540996e+01
7.180540996e+01
7.180540996e+01
9.367893480e+01
9.367893480e+01
9.367893480e+01
9.367893480e+01
9.367893480e+01
SCALARS kz_mD float 1
LOOKUP_TABLE default
1.600934012e+01
1.600934012e+01
1.600934012e+01
1.600934012e+01
1.600934012e+01
1.276008374e+01
1.276008374e+01
1.276008374e+01
1.276008374e+01
1.276008374e+01
1.385252218e+01
1.385252218e+01
1.385252218e+01
1.385252218e+01
1.385252218e+01
1.713412555e+01
1.713412555e+01
1.713412555e+01
1.713412555e+01
1.713412555e+01
1.121105194e+01
1.121105194e+01
1.121105194e+01
1.121105194e+01
1.121105194e+01
6.747760509e+00
6.747760509e+00
6.747760509e+00
6.747760509e+00
6.747760509e+00
8.248371898e+00
8.248371898e+00
8.248371898e+00
8.248371898e+00
8.248371898e+00
1.275609628e+01
1.275609628e+01
1.275609628e+01
1.275609628e+01
1.275609628e+01
9.849334666e+00
9.849334666e+00
9.849334666e+00
9.849334666e+00
9.849334666e+00
7.374144268e+00
7.374144268e+00
7.374144268e+00
7.374144268e+00
7.374144268e+00
8.206332567e+00
8.206332567e+00
8.206332567e+00
8.206332567e+00
8.206332567e+00
1.070616398e+01
1.070616398e+01
1.070616398e+01
1.070616398e+01
1.070616398e+01
SCALARS depth_m float 1
LOOKUP_TABLE default
1.586115000e+03
1.586895000e+03
1.587675000e+03
1.588455000e+03
1.589235000e+03
1.585565000e+03
1.586345000e+03
1.587125000e+03
1.587905000e+03
1.588685000e+03
1.585015000e+03
1.585795000e+03
1.586575000e+03
1.587355000e+03
1.588135000e+03
1.584465000e+03
1.585245000e+03
1.586025000e+03
1.586805000e+03
1.587585000e+03
1.598115000e+03
1.598895000e+03
1.599675000e+03
1.600455000e+03
1.601235000e+03
1.597565000e+03
1.598345000e+03
1.599125000e+03
1.599905000e+03
1.600685000e+03
1.597015000e+03
1.597795000e+03
1.598575000e+03
1.599355000e+03
1.600135000e+03
1.596465000e+03
1.597245000e+03
1.598025000e+03
1.598805000e+03
1.599585000e+03
1.610115000e+03
1.610895000e+03
1.611675000e+03
1.612455000e+03
1.613235000e+03
1.609565000e+03
1.610345000e+03
1.611125000e+03
1.611905000e+03
1.612685000e+03
1.609015000e+03
1.609795000e+03
1.610575000e+03
1.611355000e+03
1.612135000e+03
1.608465000e+03
1.609245000e+03
1.610025000e+03
1.610805000e+03
1.611585000e+03
SCALARS well_id float 1
LOOKUP_TABLE default
1.000000000e+00
0.000000000e+00
0.000000000e+00
0.000000000e+00
0.000000000e+00
0.000000000e+00
0.000000000e+00
0.000000000e+00
0.000000000e+00
0.000000000e+00
0.000000000e+00
0.000000000e+00
0.000000000e+00
0.000000000e+00
0.000000000e+00
0.000000000e+00
0.000000000e+00
0.000000000e+00
0.000000000e+00
2.000000000e+00
1.000000000e+00
0.000000000e+00
0.000000000e+00
0.000000000e+00
0.000000000e+00
0.000000000e+00
0.000000000e+00
3.000000000e+00
3.000000000e+00
3.000000000e+00
0.000000000e+00
0.000000000e+00
0.000000000e+00
0.000000000e+00
0.000000000e+00
0.000000000e+00
0.000000000e+00
0.000000000e+00
0.000000000e+00
2.000000000e+00
0.000000000e+00
0.000000000e+00
0.000000000e+00
0.000000000e+00
0.000000000e+00
0.000000000e+00
0.000000000e+00
0.000000000e+00
0.000000000e+00
0.000000000e+00
0.000000000e+00
0.000000000e+00
0.000000000e+00
0.000000000e+00
0.000000000e+00
0.000000000e+00
0.000000000e+00
0.000000000e+00
0.000000000e+00
2.000000000e+00
SCALARS completion_count float 1
LOOKUP_TABLE default
1.000000000e+00
0.000000000e+00
0.000000000e+00
0.000000000e+00
0.000000000e+00
0.000000000e+00
0.000000000e+00
0.000000000e+00
0.000000000e+00
0.000000000e+00
0.000000000e+00
0.000000000e+00
0.000000000e+00
0.000000000e+00
0.000000000e+00
0.000000000e+00
0.000000000e+00
0.000000000e+00
0.000000000e+00
1.000000000e+00
1.000000000e+00
0.000000000e+00
0.000000000e+00
0.000000000e+00
0.000000000e+00
0.000000000e+00
0.000000000e+00
1.000000000e+00
1.000000000e+00
1.000000000e+00
0.000000000e+00
0.000000000e+00
0.000000000e+00
0.000000000e+00
0.000000000e+00
0.000000000e+00
0.000000000e+00
0.000000000e+00
0.000000000e+00
1.000000000e+00
0.000000000e+00
0.000000000e+00
0.000000000e+00
0.000000000e+00
0.000000000e+00
0.000000000e+00
0.000000000e+00
0.000000000e+00
0.000000000e+00
0.000000000e+00
0.000000000e+00
0.000000000e+00
0.000000000e+00
0.000000000e+00
0.000000000e+00
0.000000000e+00
0.000000000e+00
0.000000000e+00
0.000000000e+00
1.000000000e+00
SCALARS completion_wi float 1
LOOKUP_TABLE default
2.666711914e-12
0.000000000e+00
0.000000000e+00
0.000000000e+00
0.000000000e+00
0.000000000e+00
0.000000000e+00
0.000000000e+00
0.000000000e+00
0.000000000e+00
0.000000000e+00
0.000000000e+00
0.000000000e+00
0.000000000e+00
0.000000000e+00
0.000000000e+00
0.000000000e+00
0.000000000e+00
0.000000000e+00
2.854069963e-12
1.867450223e-12
0.000000000e+00
0.000000000e+00
0.000000000e+00
0.000000000e+00
0.000000000e+00
0.000000000e+00
1.678147030e-12
1.678147030e-12
1.678147030e-12
0.000000000e+00
0.000000000e+00
0.000000000e+00
0.000000000e+00
0.000000000e+00
0.000000000e+00
0.000000000e+00
0.000000000e+00
0.000000000e+00
2.124811746e-12
0.000000000e+00
0.000000000e+00
0.000000000e+00
0.000000000e+00
0.000000000e+00
0.000000000e+00
0.000000000e+00
0.000000000e+00
0.000000000e+00
0.000000000e+00
0.000000000e+00
0.000000000e+00
0.000000000e+00
0.000000000e+00
0.000000000e+00
0.000000000e+00
0.000000000e+00
0.000000000e+00
0.000000000e+00
1.783349896e-12
SCALARS pressure_bar float 1
LOOKUP_TABLE default
3.201462863e+02
2.957015099e+02
2.788086073e+02
2.661826423e+02
2.608343567e+02
2.963599281e+02
2.863464057e+02
2.723098650e+02
2.541119294e+02
2.516708133e+02
2.887686962e+02
2.846911371e+02
2.788939125e+02
2.624618661e+02
2.606328250e+02
2.870040447e+02
2.849098165e+02
2.817139278e+02
2.671454620e+02
2.649476696e+02
3.207076867e+02
2.946243406e+02
2.773238987e+02
2.654292774e+02
2.603100380e+02
2.954648482e+02
2.837582508e+02
2.532072955e+02
2.390005505e+02
2.369275848e+02
2.890970923e+02
2.849169354e+02
2.779789706e+02
2.619965803e+02
2.602146259e+02
2.877782975e+02
2.857156823e+02
2.824962563e+02
2.680894828e+02
2.658444883e+02
2.600000000e+02
2.862467908e+02
2.773500353e+02
2.679636078e+02
2.635894421e+02
2.916070603e+02
2.846326629e+02
2.741228958e+02
2.583179867e+02
2.561522845e+02
2.892707836e+02
2.858235975e+02
2.808680306e+02
2.655285558e+02
2.637828664e+02
2.885712401e+02
2.866507262e+02
2.836820619e+02
2.695966278e+02
2.673154156e+02
SCALARS water_saturation float 1
LOOKUP_TABLE default
2.286442376e-01
2.289801929e-01
2.290874048e-01
2.292323322e-01
2.292853637e-01
2.286419040e-01
2.290325049e-01
2.291776710e-01
2.293497580e-01
2.293711549e-01
2.290291416e-01
2.290661860e-01
2.291138386e-01
2.292357866e-01
2.292406158e-01
2.290373251e-01
2.290543845e-01
2.290782873e-01
2.291613425e-01
2.292346563e-01
2.286546841e-01
2.290079975e-01
2.291279953e-01
2.292662797e-01
2.293167493e-01
2.286538324e-01
2.290751641e-01
2.294549782e-01
2.302548601e-01
2.303340777e-01
2.290399343e-01
2.290822157e-01
2.291417575e-01
2.292600715e-01
2.292655564e-01
2.290468852e-01
2.290694145e-01
2.290938138e-01
2.291746651e-01
2.292463730e-01
2.300000000e-01
2.290656641e-01
2.291529528e-01
2.292427293e-01
2.292828180e-01
2.290225767e-01
2.290857134e-01
2.291829833e-01
2.293244442e-01
2.293417351e-01
2.290457064e-01
2.290711143e-01
2.291131527e-01
2.292211531e-01
2.292252884e-01
2.290493627e-01
2.290586694e-01
2.290806524e-01
2.291558440e-01
2.292278136e-01
SCALARS oil_saturation float 1
LOOKUP_TABLE default
7.713557624e-01
7.710198071e-01
7.709125952e-01
7.707676678e-01
7.707146363e-01
7.713580960e-01
7.709674951e-01
7.708223290e-01
7.706502420e-01
7.706288451e-01
7.709708584e-01
7.709338140e-01
7.708861614e-01
7.707642134e-01
7.707593842e-01
7.709626749e-01
7.709456155e-01
7.709217127e-01
7.708386575e-01
7.666318505e-01
7.713453159e-01
7.709920025e-01
7.708720047e-01
7.707337203e-01
7.706832507e-01
7.713461676e-01
7.709248359e-01
7.705450218e-01
7.684088302e-01
7.633153552e-01
7.709600657e-01
7.709177843e-01
7.708582425e-01
7.707399285e-01
7.707344436e-01
7.709531148e-01
7.709305855e-01
7.709061862e-01
7.708253349e-01
7.679360916e-01
7.700000000e-01
7.709343359e-01
7.708470472e-01
7.707572707e-01
7.707171820e-01
7.709774233e-01
7.709142866e-01
7.708170167e-01
7.706755558e-01
7.706582649e-01
7.709542936e-01
7.709288857e-01
7.708868473e-01
7.707788469e-01
7.707747116e-01
7.709506373e-01
7.709413306e-01
7.709193476e-01
7.708441560e-01
7.674242049e-01
SCALARS gas_saturation float 1
LOOKUP_TABLE default
0.000000000e+00
0.000000000e+00
0.000000000e+00
0.000000000e+00
0.000000000e+00
0.000000000e+00
0.000000000e+00
0.000000000e+00
0.000000000e+00
0.000000000e+00
0.000000000e+00
0.000000000e+00
0.000000000e+00
0.000000000e+00
0.000000000e+00
0.000000000e+00
0.000000000e+00
0.000000000e+00
0.000000000e+00
4.133493205e-03
0.000000000e+00
0.000000000e+00
0.000000000e+00
0.000000000e+00
0.000000000e+00
0.000000000e+00
0.000000000e+00
0.000000000e+00
1.336309654e-03
6.350567050e-03
0.000000000e+00
0.000000000e+00
0.000000000e+00
0.000000000e+00
0.000000000e+00
0.000000000e+00
0.000000000e+00
0.000000000e+00
0.000000000e+00
2.817535444e-03
0.000000000e+00
0.000000000e+00
0.000000000e+00
0.000000000e+00
0.000000000e+00
0.000000000e+00
0.000000000e+00
0.000000000e+00
0.000000000e+00
0.000000000e+00
0.000000000e+00
0.000000000e+00
0.000000000e+00
0.000000000e+00
0.000000000e+00
0.000000000e+00
0.000000000e+00
0.000000000e+00
0.000000000e+00
3.347981486e-03
SCALARS Rs_sm3_sm3 float 1
LOOKUP_TABLE default
1.475800000e+02
1.475800000e+02
1.475800000e+02
1.475799999e+02
1.475800001e+02
1.475800000e+02
1.475800000e+02
1.475799999e+02
1.475800000e+02
1.475859582e+02
1.475800001e+02
1.475800001e+02
1.475800000e+02
1.475800000e+02
1.478166220e+02
1.475800001e+02
1.475800000e+02
1.475800000e+02
1.475800000e+02
1.589790679e+02
1.475800000e+02
1.475800000e+02
1.475800000e+02
1.475800000e+02
1.475799999e+02
1.475800000e+02
1.475800000e+02
1.475800001e+02
1.472802862e+02
1.462023441e+02
1.475800000e+02
1.475800000e+02
1.475800000e+02
1.475800000e+02
1.482203667e+02
1.475800000e+02
1.475800000e+02
1.475800000e+02
1.475800001e+02
1.593377953e+02
1.475800000e+02
1.475800001e+02
1.475800000e+02
1.475800000e+02
1.475800001e+02
1.475800000e+02
1.475800000e+02
1.475800000e+02
1.475800000e+02
1.475781321e+02
1.475800000e+02
1.475800000e+02
1.475800000e+02
1.475800000e+02
1.476470790e+02
1.475800001e+02
1.475799999e+02
1.475800000e+02
1.475800000e+02
1.599261662e+02
SCALARS phase_state_saturated float 1
LOOKUP_TABLE default
0.000000000e+00
0.000000000e+00
0.000000000e+00
0.000000000e+00
0.000000000e+00
0.000000000e+00
0.000000000e+00
0.000000000e+00
0.000000000e+00
0.000000000e+00
0.000000000e+00
0.000000000e+00
0.000000000e+00
0.000000000e+00
0.000000000e+00
0.000000000e+00
0.000000000e+00
0.000000000e+00
0.000000000e+00
1.000000000e+00
0.000000000e+00
0.000000000e+00
0.000000000e+00
0.000000000e+00
0.000000000e+00
0.000000000e+00
0.000000000e+00
0.000000000e+00
1.000000000e+00
1.000000000e+00
0.000000000e+00
0.000000000e+00
0.000000000e+00
0.000000000e+00
0.000000000e+00
0.000000000e+00
0.000000000e+00
0.000000000e+00
0.000000000e+00
1.000000000e+00
0.000000000e+00
0.000000000e+00
0.000000000e+00
0.000000000e+00
0.000000000e+00
0.000000000e+00
0.000000000e+00
0.000000000e+00
0.000000000e+00
0.000000000e+00
0.000000000e+00
0.000000000e+00
0.000000000e+00
0.000000000e+00
0.000000000e+00
0.000000000e+00
0.000000000e+00
0.000000000e+00
0.000000000e+00
1.000000000e+00
