# vtk DataFile Version 3.0
blackoil-framework 3D rectilinear-grid output
ASCII
DATASET RECTILINEAR_GRID
DIMENSIONS 6 5 4
X_COORDINATES 6 float
0.000000000e+00 5.200000000e+01 1.040000000e+02 1.560000000e+02 2.080000000e+02 2.600000000e+02
Y_COORDINATES 5 float
0.000000000e+00 5.500000000e+01 1.100000000e+02 1.650000000e+02 2.200000000e+02
Z_COORDINATES 4 float
0.000000000e+00 1.200000000e+01 2.400000000e+01 3.600000000e+01
CELL_DATA 60
SCALARS active float 1
LOOKUP_TABLE default
1.000000000e+00
1.000000000e+00
1.000000000e+00
1.000000000e+00
1.000000000e+00
1.000000000e+00
1.000000000e+00
1.000000000e+00
1.000000000e+00
1.000000000e+00
1.000000000e+00
1.000000000e+00
1.000000000e+00
1.000000000e+00
1.000000000e+00
1.000000000e+00
1.000000000e+00
1.000000000e+00
1.000000000e+00
1.000000000e+00
1.000000000e+00
1.000000000e+00
1.000000000e+00
1.000000000e+00
1.000000000e+00
1.000000000e+00
1.000000000e+00
1.000000000e+00
1.000000000e+00
1.000000000e+00
1.000000000e+00
1.000000000e+00
1.000000000e+00
1.000000000e+00
1.000000000e+00
1.000000000e+00
1.000000000e+00
1.000000000e+00
1.000000000e+00
1.000000000e+00
0.000000000e+00
1.000000000e+00
1.000000000e+00
1.000000000e+00
1.000000000e+00
1.000000000e+00
1.000000000e+00
1.000000000e+00
1.000000000e+00
1.000000000e+00
1.000000000e+00
1.000000000e+00
1.000000000e+00
1.000000000e+00
1.000000000e+00
1.000000000e+00
1.000000000e+00
1.000000000e+00
1.000000000e+00
1.000000000e+00
SCALARS zone_id float 1
LOOKUP_TABLE default
1.000000000e+00
1.000000000e+00
1.000000000e+00
1.000000000e+00
1.000000000e+00
1.000000000e+00
1.000000000e+00
1.000000000e+00
1.000000000e+00
1.000000000e+00
1.000000000e+00
1.000000000e+00
1.000000000e+00
1.000000000e+00
1.000000000e+00
1.000000000e+00
1.000000000e+00
1.000000000e+00
1.000000000e+00
1.000000000e+00
2.000000000e+00
2.000000000e+00
2.000000000e+00
2.000000000e+00
2.000000000e+00
2.000000000e+00
2.000000000e+00
2.000000000e+00
2.000000000e+00
2.000000000e+00
2.000000000e+00
2.000000000e+00
2.000000000e+00
2.000000000e+00
2.000000000e+00
2.000000000e+00
2.000000000e+00
2.000000000e+00
2.000000000e+00
2.000000000e+00
3.000000000e+00
3.000000000e+00
3.000000000e+00
3.000000000e+00
3.000000000e+00
3.000000000e+00
3.000000000e+00
3.000000000e+00
3.000000000e+00
3.000000000e+00
3.000000000e+00
3.000000000e+00
3.000000000e+00
3.000000000e+00
3.000000000e+00
3.000000000e+00
3.000000000e+00
3.000000000e+00
3.000000000e+00
3.000000000e+00
SCALARS fault_indicator float 1
LOOKUP_TABLE default
0.000000000e+00
0.000000000e+00
0.000000000e+00
0.000000000e+00
0.000000000e+00
0.000000000e+00
0.000000000e+00
1.000000000e+00
1.000000000e+00
0.000000000e+00
0.000000000e+00
0.000000000e+00
1.000000000e+00
1.000000000e+00
0.000000000e+00
0.000000000e+00
0.000000000e+00
1.000000000e+00
1.000000000e+00
0.000000000e+00
1.000000000e+00
1.000000000e+00
1.000000000e+00
1.000000000e+00
1.000000000e+00
0.000000000e+00
1.000000000e+00
1.000000000e+00
1.000000000e+00
1.000000000e+00
0.000000000e+00
1.000000000e+00
1.000000000e+00
1.000000000e+00
1.000000000e+00
0.000000000e+00
1.000000000e+00
1.000000000e+00
1.000000000e+00
1.000000000e+00
1.000000000e+00
1.000000000e+00
1.000000000e+00
1.000000000e+00
1.000000000e+00
1.000000000e+00
1.000000000e+00
1.000000000e+00
1.000000000e+00
1.000000000e+00
0.000000000e+00
1.000000000e+00
1.000000000e+00
1.000000000e+00
1.000000000e+00
0.000000000e+00
1.000000000e+00
1.000000000e+00
1.000000000e+00
1.000000000e+00
SCALARS porosity float 1
LOOKUP_TABLE default
2.480778528e-01
2.480778528e-01
2.480778528e-01
2.480778528e-01
2.480778528e-01
2.249512446e-01
2.249512446e-01
2.249512446e-01
2.249512446e-01
2.249512446e-01
2.333256879e-01
2.333256879e-01
2.333256879e-01
2.333256879e-01
2.333256879e-01
2.550000000e-01
2.550000000e-01
2.550000000e-01
2.550000000e-01
2.550000000e-01
2.117571501e-01
2.117571501e-01
2.117571501e-01
2.117571501e-01
2.117571501e-01
1.600000000e-01
1.600000000e-01
1.600000000e-01
1.600000000e-01
1.600000000e-01
1.804713806e-01
1.804713806e-01
1.804713806e-01
1.804713806e-01
1.804713806e-01
2.249193819e-01
2.249193819e-01
2.249193819e-01
2.249193819e-01
2.249193819e-01
1.985554711e-01
1.985554711e-01
1.985554711e-01
1.985554711e-01
1.985554711e-01
1.690497071e-01
1.690497071e-01
1.690497071e-01
1.690497071e-01
1.690497071e-01
1.799504631e-01
1.799504631e-01
1.799504631e-01
1.799504631e-01
1.799504631e-01
2.070594129e-01
2.070594129e-01
2.070594129e-01
2.070594129e-01
2.070594129e-01
SCALARS pore_volume_m3 float 1
LOOKUP_TABLE default
8.514031907e+03
8.514031907e+03
8.514031907e+03
8.514031907e+03
8.514031907e+03
7.720326715e+03
7.720326715e+03
7.720326715e+03
7.720326715e+03
7.720326715e+03
8.007737608e+03
8.007737608e+03
8.007737608e+03
8.007737608e+03
8.007737608e+03
8.751600000e+03
8.751600000e+03
8.751600000e+03
8.751600000e+03
8.751600000e+03
7.267505393e+03
7.267505393e+03
7.267505393e+03
7.267505393e+03
7.267505393e+03
5.491200000e+03
5.491200000e+03
5.491200000e+03
5.491200000e+03
5.491200000e+03
6.193777782e+03
6.193777782e+03
6.193777782e+03
6.193777782e+03
6.193777782e+03
7.719233188e+03
7.719233188e+03
7.719233188e+03
7.719233188e+03
7.719233188e+03
0.000000000e+00
6.814423768e+03
6.814423768e+03
6.814423768e+03
6.814423768e+03
5.801785946e+03
5.801785946e+03
5.801785946e+03
5.801785946e+03
5.801785946e+03
6.175899895e+03
6.175899895e+03
6.175899895e+03
6.175899895e+03
6.175899895e+03
7.106279050e+03
7.106279050e+03
7.106279050e+03
7.106279050e+03
7.106279050e+03
SCALARS kx_mD float 1
LOOKUP_TABLE default
2.001167515e+02
2.001167515e+02
2.001167515e+02
2.001167515e+02
2.001167515e+02
1.595010467e+02
1.595010467e+02
1.595010467e+02
1.595010467e+02
1.595010467e+02
1.731565272e+02
1.731565272e+02
1.731565272e+02
1.731565272e+02
1.731565272e+02
2.141765694e+02
2.141765694e+02
2.141765694e+02
2.141765694e+02
2.141765694e+02
1.401381492e+02
1.401381492e+02
1.401381492e+02
1.401381492e+02
1.401381492e+02
8.434700636e+01
8.434700636e+01
8.434700636e+01
8.434700636e+01
8.434700636e+01
1.031046487e+02
1.031046487e+02
1.031046487e+02
1.031046487e+02
1.031046487e+02
1.594512035e+02
1.594512035e+02
1.594512035e+02
1.594512035e+02
1.594512035e+02
1.231166833e+02
1.231166833e+02
1.231166833e+02
1.231166833e+02
1.231166833e+02
9.217680335e+01
9.217680335e+01
9.217680335e+01
9.217680335e+01
9.217680335e+01
1.025791571e+02
1.025791571e+02
1.025791571e+02
1.025791571e+02
1.025791571e+02
1.338270497e+02
1.338270497e+02
1.338270497e+02
1.338270497e+02
1.338270497e+02
SCALARS ky_mD float 1
LOOKUP_TABLE default
1.400817260e+02
1.400817260e+02
1.400817260e+02
1.400817260e+02
1.400817260e+02
1.116507327e+02
1.116507327e+02
1.116507327e+02
1.116507327e+02
1.116507327e+02
1.212095691e+02
1.212095691e+02
1.212095691e+02
1.212095691e+02
1.212095691e+02
1.499235986e+02
1.499235986e+02
1.499235986e+02
1.499235986e+02
1.499235986e+02
9.809670446e+01
9.809670446e+01
9.809670446e+01
9.809670446e+01
9.809670446e+01
5.904290445e+01
5.904290445e+01
5.904290445e+01
5.904290445e+01
5.904290445e+01
7.217325411e+01
7.217325411e+01
7.217325411e+01
7.217325411e+01
7.217325411e+01
1.116158425e+02
1.116158425e+02
1.116158425e+02
1.116158425e+02
1.116158425e+02
8.618167833e+01
8.618167833e+01
8.618167833e+01
8.618167833e+01
8.618167833e+01
6.452376235e+01
6.452376235e+01
6.452376235e+01
6.452376235e+01
6.452376235e+01
7.180540996e+01
7.180540996e+01
7.180540996e+01
7.180540996e+01
7.180540996e+01
9.367893480e+01
9.367893480e+01
9.367893480e+01
9.367893480e+01
9.367893480e+01
SCALARS kz_mD float 1
LOOKUP_TABLE default
1.600934012e+01
1.600934012e+01
1.600934012e+01
1.600934012e+01
1.600934012e+01
1.276008374e+01
1.276008374e+01
1.276008374e+01
1.276008374e+01
1.276008374e+01
1.385252218e+01
1.385252218e+01
1.385252218e+01
1.385252218e+01
1.385252218e+01
1.713412555e+01
1.713412555e+01
1.713412555e+01
1.713412555e+01
1.713412555e+01
1.121105194e+01
1.121105194e+01
1.121105194e+01
1.121105194e+01
1.121105194e+01
6.747760509e+00
6.747760509e+00
6.747760509e+00
6.747760509e+00
6.747760509e+00
8.248371898e+00
8.248371898e+00
8.248371898e+00
8.248371898e+00
8.248371898e+00
1.275609628e+01
1.275609628e+01
1.275609628e+01
1.275609628e+01
1.275609628e+01
9.849334666e+00
9.849334666e+00
9.849334666e+00
9.849334666e+00
9.849334666e+00
7.374144268e+00
7.374144268e+00
7.374144268e+00
7.374144268e+00
7.374144268e+00
8.206332567e+00
8.206332567e+00
8.206332567e+00
8.206332567e+00
8.206332567e+00
1.070616398e+01
1.070616398e+01
1.070616398e+01
1.070616398e+01
1.070616398e+01
SCALARS depth_m float 1
LOOKUP_TABLE default
1.586115000e+03
1.586895000e+03
1.587675000e+03
1.588455000e+03
1.589235000e+03
1.585565000e+03
1.586345000e+03
1.587125000e+03
1.587905000e+03
1.588685000e+03
1.585015000e+03
1.585795000e+03
1.586575000e+03
1.587355000e+03
1.588135000e+03
1.584465000e+03
1.585245000e+03
1.586025000e+03
1.586805000e+03
1.587585000e+03
1.598115000e+03
1.598895000e+03
1.599675000e+03
1.600455000e+03
1.601235000e+03
1.597565000e+03
1.598345000e+03
1.599125000e+03
1.599905000e+03
1.600685000e+03
1.597015000e+03
1.597795000e+03
1.598575000e+03
1.599355000e+03
1.600135000e+03
1.596465000e+03
1.597245000e+03
1.598025000e+03
1.598805000e+03
1.599585000e+03
1.610115000e+03
1.610895000e+03
1.611675000e+03
1.612455000e+03
1.613235000e+03
1.609565000e+03
1.610345000e+03
1.611125000e+03
1.611905000e+03
1.612685000e+03
1.609015000e+03
1.609795000e+03
1.610575000e+03
1.611355000e+03
1.612135000e+03
1.608465000e+03
1.609245000e+03
1.610025000e+03
1.610805000e+03
1.611585000e+03
SCALARS well_id float 1
LOOKUP_TABLE default
1.000000000e+00
0.000000000e+00
0.000000000e+00
0.000000000e+00
0.000000000e+00
0.000000000e+00
0.000000000e+00
0.000000000e+00
0.000000000e+00
0.000000000e+00
0.000000000e+00
0.000000000e+00
0.000000000e+00
0.000000000e+00
0.000000000e+00
0.000000000e+00
0.000000000e+00
0.000000000e+00
0.000000000e+00
2.000000000e+00
1.000000000e+00
0.000000000e+00
0.000000000e+00
0.000000000e+00
0.000000000e+00
0.000000000e+00
0.000000000e+00
3.000000000e+00
3.000000000e+00
3.000000000e+00
0.000000000e+00
0.000000000e+00
0.000000000e+00
0.000000000e+00
0.000000000e+00
0.000000000e+00
0.000000000e+00
0.000000000e+00
0.000000000e+00
2.000000000e+00
0.000000000e+00
0.000000000e+00
0.000000000e+00
0.000000000e+00
0.000000000e+00
0.000000000e+00
0.000000000e+00
0.000000000e+00
0.000000000e+00
0.000000000e+00
0.000000000e+00
0.000000000e+00
0.000000000e+00
0.000000000e+00
0.000000000e+00
0.000000000e+00
0.000000000e+00
0.000000000e+00
0.000000000e+00
2.000000000e+00
SCALARS completion_count float 1
LOOKUP_TABLE default
1.000000000e+00
0.000000000e+00
0.000000000e+00
0.000000000e+00
0.000000000e+00
0.000000000e+00
0.000000000e+00
0.000000000e+00
0.000000000e+00
0.000000000e+00
0.000000000e+00
0.000000000e+00
0.000000000e+00
0.000000000e+00
0.000000000e+00
0.000000000e+00
0.000000000e+00
0.000000000e+00
0.000000000e+00
1.000000000e+00
1.000000000e+00
0.000000000e+00
0.000000000e+00
0.000000000e+00
0.000000000e+00
0.000000000e+00
0.000000000e+00
1.000000000e+00
1.000000000e+00
1.000000000e+00
0.000000000e+00
0.000000000e+00
0.000000000e+00
0.000000000e+00
0.000000000e+00
0.000000000e+00
0.000000000e+00
0.000000000e+00
0.000000000e+00
1.000000000e+00
0.000000000e+00
0.000000000e+00
0.000000000e+00
0.000000000e+00
0.000000000e+00
0.000000000e+00
0.000000000e+00
0.000000000e+00
0.000000000e+00
0.000000000e+00
0.000000000e+00
0.000000000e+00
0.000000000e+00
0.000000000e+00
0.000000000e+00
0.000000000e+00
0.000000000e+00
0.000000000e+00
0.000000000e+00
1.000000000e+00
SCALARS completion_wi float 1
LOOKUP_TABLE default
2.666711914e-12
0.000000000e+00
0.000000000e+00
0.000000000e+00
0.000000000e+00
0.000000000e+00
0.000000000e+00
0.000000000e+00
0.000000000e+00
0.000000000e+00
0.000000000e+00
0.000000000e+00
0.000000000e+00
0.000000000e+00
0.000000000e+00
0.000000000e+00
0.000000000e+00
0.000000000e+00
0.000000000e+00
2.854069963e-12
1.867450223e-12
0.000000000e+00
0.000000000e+00
0.000000000e+00
0.000000000e+00
0.000000000e+00
0.000000000e+00
1.678147030e-12
1.678147030e-12
1.678147030e-12
0.000000000e+00
0.000000000e+00
0.000000000e+00
0.000000000e+00
0.000000000e+00
0.000000000e+00
0.000000000e+00
0.000000000e+00
0.000000000e+00
2.124811746e-12
0.000000000e+00
0.000000000e+00
0.000000000e+00
0.000000000e+00
0.000000000e+00
0.000000000e+00
0.000000000e+00
0.000000000e+00
0.000000000e+00
0.000000000e+00
0.000000000e+00
0.000000000e+00
0.000000000e+00
0.000000000e+00
0.000000000e+00
0.000000000e+00
0.000000000e+00
0.000000000e+00
0.000000000e+00
1.783349896e-12
SCALARS pressure_bar float 1
LOOKUP_TABLE default
3.086941847e+02
2.781428409e+02
2.576923399e+02
2.436050040e+02
2.375388873e+02
2.747837644e+02
2.632389559e+02
2.493254061e+02
2.321404103e+02
2.296818425e+02
2.594109230e+02
2.551627646e+02
2.496040984e+02
2.350131249e+02
2.336237179e+02
2.541905385e+02
2.522060562e+02
2.493521428e+02
2.378168115e+02
2.376096832e+02
3.092011012e+02
2.764700276e+02
2.561018833e+02
2.430448395e+02
2.372904805e+02
2.728893444e+02
2.605760303e+02
2.343293388e+02
2.231139795e+02
2.210551617e+02
2.590619418e+02
2.549475098e+02
2.486412147e+02
2.347937901e+02
2.334962929e+02
2.545962162e+02
2.527017506e+02
2.498683841e+02
2.385829353e+02
2.384957580e+02
2.600000000e+02
2.634498786e+02
2.536342886e+02
2.436259005e+02
2.388251718e+02
2.655411169e+02
2.586064254e+02
2.487833090e+02
2.343456328e+02
2.322457014e+02
2.584205786e+02
2.549278880e+02
2.503201788e+02
2.369094853e+02
2.356896851e+02
2.550442374e+02
2.531764928e+02
2.505512409e+02
2.396004796e+02
2.396413966e+02
SCALARS water_saturation float 1
LOOKUP_TABLE default
2.287560992e-01
2.294232601e-01
2.296568832e-01
2.298582257e-01
2.299412052e-01
2.292139551e-01
2.296626550e-01
2.298181735e-01
2.299716963e-01
2.299963153e-01
2.298390971e-01
2.298885540e-01
2.299317133e-01
2.300097396e-01
2.300077657e-01
2.299504667e-01
2.299654071e-01
2.299801331e-01
2.299858639e-01
2.299390989e-01
2.287758495e-01
2.294789680e-01
2.297124234e-01
2.298983371e-01
2.299738417e-01
2.292599286e-01
2.297169699e-01
2.300120231e-01
2.305072886e-01
2.306013473e-01
2.298776855e-01
2.299256022e-01
2.299689706e-01
2.300351933e-01
2.300323560e-01
2.299774791e-01
2.299981757e-01
2.300121701e-01
2.300130328e-01
2.299611780e-01
2.300000000e-01
2.297013493e-01
2.298188291e-01
2.299320741e-01
2.299884259e-01
2.297518058e-01
2.298170162e-01
2.299009745e-01
2.300085621e-01
2.300252671e-01
2.299137518e-01
2.299396820e-01
2.299727967e-01
2.300343384e-01
2.300272955e-01
2.299938991e-01
2.299996667e-01
2.300123736e-01
2.300072536e-01
2.299511610e-01
SCALARS oil_saturation float 1
LOOKUP_TABLE default
7.712439008e-01
7.705767399e-01
7.703431168e-01
7.701417743e-01
7.652924713e-01
7.707860449e-01
7.703373450e-01
7.701818265e-01
7.521099668e-01
7.458635109e-01
7.701609029e-01
7.701114460e-01
7.700682867e-01
7.591663019e-01
7.555394999e-01
7.700495333e-01
7.700345929e-01
7.700198669e-01
7.659044706e-01
7.410389975e-01
7.712241505e-01
7.705210320e-01
7.702875766e-01
7.701016629e-01
7.646716384e-01
7.707400714e-01
7.702830301e-01
7.574951895e-01
7.372272006e-01
7.329030779e-01
7.701223145e-01
7.700743978e-01
7.700310294e-01
7.586072443e-01
7.535101725e-01
7.700225209e-01
7.700018243e-01
7.699878299e-01
7.676762294e-01
7.426160003e-01
7.700000000e-01
7.702986507e-01
7.701811709e-01
7.700679259e-01
7.682663110e-01
7.702481942e-01
7.701829838e-01
7.700990255e-01
7.575385047e-01
7.523439766e-01
7.700862482e-01
7.700603180e-01
7.700272033e-01
7.637060194e-01
7.608725192e-01
7.700061009e-01
7.700003333e-01
7.699876264e-01
7.699927464e-01
7.419358191e-01
SCALARS gas_saturation float 1
LOOKUP_TABLE default
0.000000000e+00
0.000000000e+00
0.000000000e+00
0.000000000e+00
4.766323548e-03
0.000000000e+00
0.000000000e+00
0.000000000e+00
1.791833694e-02
2.414017381e-02
0.000000000e+00
0.000000000e+00
0.000000000e+00
1.082395853e-02
1.445273436e-02
0.000000000e+00
0.000000000e+00
0.000000000e+00
4.109665449e-03
2.902190365e-02
0.000000000e+00
0.000000000e+00
0.000000000e+00
0.000000000e+00
5.354519872e-03
0.000000000e+00
0.000000000e+00
1.249278747e-02
3.226551085e-02
3.649557478e-02
0.000000000e+00
0.000000000e+00
0.000000000e+00
1.135756244e-02
1.645747156e-02
0.000000000e+00
0.000000000e+00
0.000000000e+00
2.310737823e-03
2.742282168e-02
0.000000000e+00
0.000000000e+00
0.000000000e+00
0.000000000e+00
1.745263088e-03
0.000000000e+00
0.000000000e+00
0.000000000e+00
1.245293323e-02
1.763075628e-02
0.000000000e+00
0.000000000e+00
0.000000000e+00
6.259642146e-03
9.100185228e-03
0.000000000e+00
0.000000000e+00
0.000000000e+00
0.000000000e+00
2.811301983e-02
SCALARS Rs_sm3_sm3 float 1
LOOKUP_TABLE default
1.475799999e+02
1.475800000e+02
1.475800000e+02
1.475799999e+02
1.465202214e+02
1.475800000e+02
1.475800000e+02
1.475800000e+02
1.437130133e+02
1.424345581e+02
1.475800001e+02
1.475800001e+02
1.475800000e+02
1.452068250e+02
1.444843333e+02
1.475800001e+02
1.475800000e+02
1.475800000e+02
1.466647420e+02
1.465570352e+02
1.475800000e+02
1.475800000e+02
1.475800000e+02
1.475800000e+02
1.463910499e+02
1.475800000e+02
1.475800000e+02
1.448512562e+02
1.388683877e+02
1.376330970e+02
1.475800000e+02
1.475800000e+02
1.475800000e+02
1.450927708e+02
1.444180723e+02
1.475800000e+02
1.475800000e+02
1.475800000e+02
1.470631264e+02
1.470177942e+02
1.475800000e+02
1.475800001e+02
1.475800000e+02
1.475800000e+02
1.471890894e+02
1.475800000e+02
1.475800000e+02
1.475800000e+02
1.448597290e+02
1.437677647e+02
1.475800000e+02
1.475800000e+02
1.475800001e+02
1.461929324e+02
1.455586363e+02
1.475800000e+02
1.475799999e+02
1.475800000e+02
1.475800000e+02
1.476135262e+02
SCALARS phase_state_saturated float 1
LOOKUP_TABLE default
0.000000000e+00
0.000000000e+00
0.000000000e+00
0.000000000e+00
1.000000000e+00
0.000000000e+00
0.000000000e+00
0.000000000e+00
1.000000000e+00
1.000000000e+00
0.000000000e+00
0.000000000e+00
0.000000000e+00
1.000000000e+00
1.000000000e+00
0.000000000e+00
0.000000000e+00
0.000000000e+00
1.000000000e+00
1.000000000e+00
0.000000000e+00
0.000000000e+00
0.000000000e+00
0.000000000e+00
1.000000000e+00
0.000000000e+00
0.000000000e+00
1.000000000e+00
1.000000000e+00
1.000000000e+00
0.000000000e+00
0.000000000e+00
0.000000000e+00
1.000000000e+00
1.000000000e+00
0.000000000e+00
0.000000000e+00
0.000000000e+00
1.000000000e+00
1.000000000e+00
0.000000000e+00
0.000000000e+00
0.000000000e+00
0.000000000e+00
1.000000000e+00
0.000000000e+00
0.000000000e+00
0.000000000e+00
1.000000000e+00
1.000000000e+00
0.000000000e+00
0.000000000e+00
0.000000000e+00
1.000000000e+00
1.000000000e+00
0.000000000e+00
0.000000000e+00
0.000000000e+00
0.000000000e+00
1.000000000e+00
