# vtk DataFile Version 3.0
blackoil-framework 3D rectilinear-grid output
ASCII
DATASET RECTILINEAR_GRID
DIMENSIONS 6 5 4
X_COORDINATES 6 float
0.000000000e+00 5.200000000e+01 1.040000000e+02 1.560000000e+02 2.080000000e+02 2.600000000e+02
Y_COORDINATES 5 float
0.000000000e+00 5.500000000e+01 1.100000000e+02 1.650000000e+02 2.200000000e+02
Z_COORDINATES 4 float
0.000000000e+00 1.200000000e+01 2.400000000e+01 3.600000000e+01
CELL_DATA 60
SCALARS active float 1
LOOKUP_TABLE default
1.000000000e+00
1.000000000e+00
1.000000000e+00
1.000000000e+00
1.000000000e+00
1.000000000e+00
1.000000000e+00
1.000000000e+00
1.000000000e+00
1.000000000e+00
1.000000000e+00
1.000000000e+00
1.000000000e+00
1.000000000e+00
1.000000000e+00
1.000000000e+00
1.000000000e+00
1.000000000e+00
1.000000000e+00
1.000000000e+00
1.000000000e+00
1.000000000e+00
1.000000000e+00
1.000000000e+00
1.000000000e+00
1.000000000e+00
1.000000000e+00
1.000000000e+00
1.000000000e+00
1.000000000e+00
1.000000000e+00
1.000000000e+00
1.000000000e+00
1.000000000e+00
1.000000000e+00
1.000000000e+00
1.000000000e+00
1.000000000e+00
1.000000000e+00
1.000000000e+00
0.000000000e+00
1.000000000e+00
1.000000000e+00
1.000000000e+00
1.000000000e+00
1.000000000e+00
1.000000000e+00
1.000000000e+00
1.000000000e+00
1.000000000e+00
1.000000000e+00
1.000000000e+00
1.000000000e+00
1.000000000e+00
1.000000000e+00
1.000000000e+00
1.000000000e+00
1.000000000e+00
1.000000000e+00
1.000000000e+00
SCALARS zone_id float 1
LOOKUP_TABLE default
1.000000000e+00
1.000000000e+00
1.000000000e+00
1.000000000e+00
1.000000000e+00
1.000000000e+00
1.000000000e+00
1.000000000e+00
1.000000000e+00
1.000000000e+00
1.000000000e+00
1.000000000e+00
1.000000000e+00
1.000000000e+00
1.000000000e+00
1.000000000e+00
1.000000000e+00
1.000000000e+00
1.000000000e+00
1.000000000e+00
2.000000000e+00
2.000000000e+00
2.000000000e+00
2.000000000e+00
2.000000000e+00
2.000000000e+00
2.000000000e+00
2.000000000e+00
2.000000000e+00
2.000000000e+00
2.000000000e+00
2.000000000e+00
2.000000000e+00
2.000000000e+00
2.000000000e+00
2.000000000e+00
2.000000000e+00
2.000000000e+00
2.000000000e+00
2.000000000e+00
3.000000000e+00
3.000000000e+00
3.000000000e+00
3.000000000e+00
3.000000000e+00
3.000000000e+00
3.000000000e+00
3.000000000e+00
3.000000000e+00
3.000000000e+00
3.000000000e+00
3.000000000e+00
3.000000000e+00
3.000000000e+00
3.000000000e+00
3.000000000e+00
3.000000000e+00
3.000000000e+00
3.000000000e+00
3.000000000e+00
SCALARS fault_indicator float 1
LOOKUP_TABLE default
0.000000000e+00
0.000000000e+00
0.000000000e+00
0.000000000e+00
0.000000000e+00
0.000000000e+00
0.000000000e+00
1.000000000e+00
1.000000000e+00
0.000000000e+00
0.000000000e+00
0.000000000e+00
1.000000000e+00
1.000000000e+00
0.000000000e+00
0.000000000e+00
0.000000000e+00
1.000000000e+00
1.000000000e+00
0.000000000e+00
1.000000000e+00
1.000000000e+00
1.000000000e+00
1.000000000e+00
1.000000000e+00
0.000000000e+00
1.000000000e+00
1.000000000e+00
1.000000000e+00
1.000000000e+00
0.000000000e+00
1.000000000e+00
1.000000000e+00
1.000000000e+00
1.000000000e+00
0.000000000e+00
1.000000000e+00
1.000000000e+00
1.000000000e+00
1.000000000e+00
1.000000000e+00
1.000000000e+00
1.000000000e+00
1.000000000e+00
1.000000000e+00
1.000000000e+00
1.000000000e+00
1.000000000e+00
1.000000000e+00
1.000000000e+00
0.000000000e+00
1.000000000e+00
1.000000000e+00
1.000000000e+00
1.000000000e+00
0.000000000e+00
1.000000000e+00
1.000000000e+00
1.000000000e+00
1.000000000e+00
SCALARS porosity float 1
LOOKUP_TABLE default
2.480778528e-01
2.480778528e-01
2.480778528e-01
2.480778528e-01
2.480778528e-01
2.249512446e-01
2.249512446e-01
2.249512446e-01
2.249512446e-01
2.249512446e-01
2.333256879e-01
2.333256879e-01
2.333256879e-01
2.333256879e-01
2.333256879e-01
2.550000000e-01
2.550000000e-01
2.550000000e-01
2.550000000e-01
2.550000000e-01
2.117571501e-01
2.117571501e-01
2.117571501e-01
2.117571501e-01
2.117571501e-01
1.600000000e-01
1.600000000e-01
1.600000000e-01
1.600000000e-01
1.600000000e-01
1.804713806e-01
1.804713806e-01
1.804713806e-01
1.804713806e-01
1.804713806e-01
2.249193819e-01
2.249193819e-01
2.249193819e-01
2.249193819e-01
2.249193819e-01
1.985554711e-01
1.985554711e-01
1.985554711e-01
1.985554711e-01
1.985554711e-01
1.690497071e-01
1.690497071e-01
1.690497071e-01
1.690497071e-01
1.690497071e-01
1.799504631e-01
1.799504631e-01
1.799504631e-01
1.799504631e-01
1.799504631e-01
2.070594129e-01
2.070594129e-01
2.070594129e-01
2.070594129e-01
2.070594129e-01
SCALARS pore_volume_m3 float 1
LOOKUP_TABLE default
8.514031907e+03
8.514031907e+03
8.514031907e+03
8.514031907e+03
8.514031907e+03
7.720326715e+03
7.720326715e+03
7.720326715e+03
7.720326715e+03
7.720326715e+03
8.007737608e+03
8.007737608e+03
8.007737608e+03
8.007737608e+03
8.007737608e+03
8.751600000e+03
8.751600000e+03
8.751600000e+03
8.751600000e+03
8.751600000e+03
7.267505393e+03
7.267505393e+03
7.267505393e+03
7.267505393e+03
7.267505393e+03
5.491200000e+03
5.491200000e+03
5.491200000e+03
5.491200000e+03
5.491200000e+03
6.193777782e+03
6.193777782e+03
6.193777782e+03
6.193777782e+03
6.193777782e+03
7.719233188e+03
7.719233188e+03
7.719233188e+03
7.719233188e+03
7.719233188e+03
0.000000000e+00
6.814423768e+03
6.814423768e+03
6.814423768e+03
6.814423768e+03
5.801785946e+03
5.801785946e+03
5.801785946e+03
5.801785946e+03
5.801785946e+03
6.175899895e+03
6.175899895e+03
6.175899895e+03
6.175899895e+03
6.175899895e+03
7.106279050e+03
7.106279050e+03
7.106279050e+03
7.106279050e+03
7.106279050e+03
SCALARS kx_mD float 1
LOOKUP_TABLE default
2.001167515e+02
2.001167515e+02
2.001167515e+02
2.001167515e+02
2.001167515e+02
1.595010467e+02
1.595010467e+02
1.595010467e+02
1.595010467e+02
1.595010467e+02
1.731565272e+02
1.731565272e+02
1.731565272e+02
1.731565272e+02
1.731565272e+02
2.141765694e+02
2.141765694e+02
2.141765694e+02
2.141765694e+02
2.141765694e+02
1.401381492e+02
1.401381492e+02
1.401381492e+02
1.401381492e+02
1.401381492e+02
8.434700636e+01
8.434700636e+01
8.434700636e+01
8.434700636e+01
8.434700636e+01
1.031046487e+02
1.031046487e+02
1.031046487e+02
1.031046487e+02
1.031046487e+02
1.594512035e+02
1.594512035e+02
1.594512035e+02
1.594512035e+02
1.594512035e+02
1.231166833e+02
1.231166833e+02
1.231166833e+02
1.231166833e+02
1.231166833e+02
9.217680335e+01
9.217680335e+01
9.217680335e+01
9.217680335e+01
9.217680335e+01
1.025791571e+02
1.025791571e+02
1.025791571e+02
1.025791571e+02
1.025791571e+02
1.338270497e+02
1.338270497e+02
1.338270497e+02
1.338270497e+02
1.338270497e+02
SCALARS ky_mD float 1
LOOKUP_TABLE default
1.400817260e+02
1.400817260e+02
1.400817260e+02
1.400817260e+02
1.400817260e+02
1.116507327e+02
1.116507327e+02
1.116507327e+02
1.116507327e+02
1.116507327e+02
1.212095691e+02
1.212095691e+02
1.212095691e+02
1.212095691e+02
1.212095691e+02
1.499235986e+02
1.499235986e+02
1.499235986e+02
1.499235986e+02
1.499235986e+02
9.809670446e+01
9.809670446e+01
9.809670446e+01
9.809670446e+01
9.809670446e+01
5.904290445e+01
5.904290445e+01
5.904290445e+01
5.904290445e+01
5.904290445e+01
7.217325411e+01
7.217325411e+01
7.217325411e+01
7.217325411e+01
7.217325411e+01
1.116158425e+02
1.116158425e+02
1.116158425e+02
1.116158425e+02
1.116158425e+02
8.618167833e+01
8.618167833e+01
8.618167833e+01
8.618167833e+01
8.618167833e+01
6.452376235e+01
6.452376235e+01
6.452376235e+01
6.452376235e+01
6.452376235e+01
7.180540996e+01
7.180540996e+01
7.180540996e+01
7.180540996e+01
7.180540996e+01
9.367893480e+01
9.367893480e+01
9.367893480e+01
9.367893480e+01
9.367893480e+01
SCALARS kz_mD float 1
LOOKUP_TABLE default
1.600934012e+01
1.600934012e+01
1.600934012e+01
1.600934012e+01
1.600934012e+01
1.276008374e+01
1.276008374e+01
1.276008374e+01
1.276008374e+01
1.276008374e+01
1.385252218e+01
1.385252218e+01
1.385252218e+01
1.385252218e+01
1.385252218e+01
1.713412555e+01
1.713412555e+01
1.713412555e+01
1.713412555e+01
1.713412555e+01
1.121105194e+01
1.121105194e+01
1.121105194e+01
1.121105194e+01
1.121105194e+01
6.747760509e+00
6.747760509e+00
6.747760509e+00
6.747760509e+00
6.747760509e+00
8.248371898e+00
8.248371898e+00
8.248371898e+00
8.248371898e+00
8.248371898e+00
1.275609628e+01
1.275609628e+01
1.275609628e+01
1.275609628e+01
1.275609628e+01
9.849334666e+00
9.849334666e+00
9.849334666e+00
9.849334666e+00
9.849334666e+00
7.374144268e+00
7.374144268e+00
7.374144268e+00
7.374144268e+00
7.374144268e+00
8.206332567e+00
8.206332567e+00
8.206332567e+00
8.206332567e+00
8.206332567e+00
1.070616398e+01
1.070616398e+01
1.070616398e+01
1.070616398e+01
1.070616398e+01
SCALARS depth_m float 1
LOOKUP_TABLE default
1.586115000e+03
1.586895000e+03
1.587675000e+03
1.588455000e+03
1.589235000e+03
1.585565000e+03
1.586345000e+03
1.587125000e+03
1.587905000e+03
1.588685000e+03
1.585015000e+03
1.585795000e+03
1.586575000e+03
1.587355000e+03
1.588135000e+03
1.584465000e+03
1.585245000e+03
1.586025000e+03
1.586805000e+03
1.587585000e+03
1.598115000e+03
1.598895000e+03
1.599675000e+03
1.600455000e+03
1.601235000e+03
1.597565000e+03
1.598345000e+03
1.599125000e+03
1.599905000e+03
1.600685000e+03
1.597015000e+03
1.597795000e+03
1.598575000e+03
1.599355000e+03
1.600135000e+03
1.596465000e+03
1.597245000e+03
1.598025000e+03
1.598805000e+03
1.599585000e+03
1.610115000e+03
1.610895000e+03
1.611675000e+03
1.612455000e+03
1.613235000e+03
1.609565000e+03
1.610345000e+03
1.611125000e+03
1.611905000e+03
1.612685000e+03
1.609015000e+03
1.609795000e+03
1.610575000e+03
1.611355000e+03
1.612135000e+03
1.608465000e+03
1.609245000e+03
1.610025000e+03
1.610805000e+03
1.611585000e+03
SCALARS well_id float 1
LOOKUP_TABLE default
1.000000000e+00
0.000000000e+00
0.000000000e+00
0.000000000e+00
0.000000000e+00
0.000000000e+00
0.000000000e+00
0.000000000e+00
0.000000000e+00
0.000000000e+00
0.000000000e+00
0.000000000e+00
0.000000000e+00
0.000000000e+00
0.000000000e+00
0.000000000e+00
0.000000000e+00
0.000000000e+00
0.000000000e+00
2.000000000e+00
1.000000000e+00
0.000000000e+00
0.000000000e+00
0.000000000e+00
0.000000000e+00
0.000000000e+00
0.000000000e+00
3.000000000e+00
3.000000000e+00
3.000000000e+00
0.000000000e+00
0.000000000e+00
0.000000000e+00
0.000000000e+00
0.000000000e+00
0.000000000e+00
0.000000000e+00
0.000000000e+00
0.000000000e+00
2.000000000e+00
0.000000000e+00
0.000000000e+00
0.000000000e+00
0.000000000e+00
0.000000000e+00
0.000000000e+00
0.000000000e+00
0.000000000e+00
0.000000000e+00
0.000000000e+00
0.000000000e+00
0.000000000e+00
0.000000000e+00
0.000000000e+00
0.000000000e+00
0.000000000e+00
0.000000000e+00
0.000000000e+00
0.000000000e+00
2.000000000e+00
SCALARS completion_count float 1
LOOKUP_TABLE default
1.000000000e+00
0.000000000e+00
0.000000000e+00
0.000000000e+00
0.000000000e+00
0.000000000e+00
0.000000000e+00
0.000000000e+00
0.000000000e+00
0.000000000e+00
0.000000000e+00
0.000000000e+00
0.000000000e+00
0.000000000e+00
0.000000000e+00
0.000000000e+00
0.000000000e+00
0.000000000e+00
0.000000000e+00
1.000000000e+00
1.000000000e+00
0.000000000e+00
0.000000000e+00
0.000000000e+00
0.000000000e+00
0.000000000e+00
0.000000000e+00
1.000000000e+00
1.000000000e+00
1.000000000e+00
0.000000000e+00
0.000000000e+00
0.000000000e+00
0.000000000e+00
0.000000000e+00
0.000000000e+00
0.000000000e+00
0.000000000e+00
0.000000000e+00
1.000000000e+00
0.000000000e+00
0.000000000e+00
0.000000000e+00
0.000000000e+00
0.000000000e+00
0.000000000e+00
0.000000000e+00
0.000000000e+00
0.000000000e+00
0.000000000e+00
0.000000000e+00
0.000000000e+00
0.000000000e+00
0.000000000e+00
0.000000000e+00
0.000000000e+00
0.000000000e+00
0.000000000e+00
0.000000000e+00
1.000000000e+00
SCALARS completion_wi float 1
LOOKUP_TABLE default
2.666711914e-12
0.000000000e+00
0.000000000e+00
0.000000000e+00
0.000000000e+00
0.000000000e+00
0.000000000e+00
0.000000000e+00
0.000000000e+00
0.000000000e+00
0.000000000e+00
0.000000000e+00
0.000000000e+00
0.000000000e+00
0.000000000e+00
0.000000000e+00
0.000000000e+00
0.000000000e+00
0.000000000e+00
2.854069963e-12
1.867450223e-12
0.000000000e+00
0.000000000e+00
0.000000000e+00
0.000000000e+00
0.000000000e+00
0.000000000e+00
1.678147030e-12
1.678147030e-12
1.678147030e-12
0.000000000e+00
0.000000000e+00
0.000000000e+00
0.000000000e+00
0.000000000e+00
0.000000000e+00
0.000000000e+00
0.000000000e+00
0.000000000e+00
2.124811746e-12
0.000000000e+00
0.000000000e+00
0.000000000e+00
0.000000000e+00
0.000000000e+00
0.000000000e+00
0.000000000e+00
0.000000000e+00
0.000000000e+00
0.000000000e+00
0.000000000e+00
0.000000000e+00
0.000000000e+00
0.000000000e+00
0.000000000e+00
0.000000000e+00
0.000000000e+00
0.000000000e+00
0.000000000e+00
1.783349896e-12
SCALARS pressure_bar float 1
LOOKUP_TABLE default
3.238206195e+02
3.011900302e+02
2.842244336e+02
2.720349754e+02
2.668660613e+02
3.025780264e+02
2.921506264e+02
2.777238542e+02
2.596383859e+02
2.571845145e+02
2.957456464e+02
2.914200727e+02
2.851744557e+02
2.667583171e+02
2.645860981e+02
2.942370456e+02
2.918834157e+02
2.881986047e+02
2.703103384e+02
2.671330782e+02
3.244030755e+02
3.002190783e+02
2.827570884e+02
2.713728950e+02
2.664205688e+02
3.018251667e+02
2.894781704e+02
2.573096809e+02
2.447631543e+02
2.425937459e+02
2.961723092e+02
2.916949587e+02
2.842029586e+02
2.662595952e+02
2.641073485e+02
2.950578410e+02
2.927244718e+02
2.889999820e+02
2.711673821e+02
2.678637147e+02
2.600000000e+02
2.923694284e+02
2.834388246e+02
2.740958691e+02
2.697560686e+02
2.983207920e+02
2.910762396e+02
2.800855229e+02
2.639246613e+02
2.616797625e+02
2.964587669e+02
2.927684510e+02
2.873579263e+02
2.697357736e+02
2.675803981e+02
2.958985081e+02
2.937231478e+02
2.902503931e+02
2.725724184e+02
2.691549217e+02
SCALARS water_saturation float 1
LOOKUP_TABLE default
2.286039225e-01
2.288180995e-01
2.289669419e-01
2.290858362e-01
2.291338708e-01
2.287970220e-01
2.288961995e-01
2.290405519e-01
2.292114939e-01
2.292314317e-01
2.288477992e-01
2.288911645e-01
2.289545931e-01
2.291394988e-01
2.291552147e-01
2.288538237e-01
2.288784215e-01
2.289169477e-01
2.291030169e-01
2.292072771e-01
2.286065443e-01
2.288377687e-01
2.289982122e-01
2.291092326e-01
2.291552885e-01
2.288115189e-01
2.289358770e-01
2.293703163e-01
2.301174702e-01
2.301960954e-01
2.288516023e-01
2.289005885e-01
2.289777598e-01
2.291586135e-01
2.291748558e-01
2.288565961e-01
2.288849817e-01
2.289243630e-01
2.291115569e-01
2.292172695e-01
2.300000000e-01
2.289046631e-01
2.289902564e-01
2.290814944e-01
2.291217611e-01
2.288429391e-01
2.289132167e-01
2.290246148e-01
2.291802119e-01
2.291990555e-01
2.288526204e-01
2.288870637e-01
2.289429256e-01
2.291227387e-01
2.291399124e-01
2.288544446e-01
2.288733572e-01
2.289102376e-01
2.290965679e-01
2.292044631e-01
SCALARS oil_saturation float 1
LOOKUP_TABLE default
7.713960775e-01
7.711819005e-01
7.710330581e-01
7.709141638e-01
7.708661292e-01
7.712029780e-01
7.711038005e-01
7.709594481e-01
7.707885061e-01
7.707685683e-01
7.711522008e-01
7.711088355e-01
7.710454069e-01
7.708605012e-01
7.708447853e-01
7.711461763e-01
7.711215785e-01
7.710830523e-01
7.708969831e-01
7.707927229e-01
7.713934557e-01
7.711622313e-01
7.710017878e-01
7.708907674e-01
7.708447115e-01
7.711884811e-01
7.710641230e-01
7.706296837e-01
7.698825298e-01
7.698039046e-01
7.711483977e-01
7.710994115e-01
7.710222402e-01
7.708413865e-01
7.708251442e-01
7.711434039e-01
7.711150183e-01
7.710756370e-01
7.708884431e-01
7.707827305e-01
7.700000000e-01
7.710953369e-01
7.710097436e-01
7.709185056e-01
7.708782389e-01
7.711570609e-01
7.710867833e-01
7.709753852e-01
7.708197881e-01
7.708009445e-01
7.711473796e-01
7.711129363e-01
7.710570744e-01
7.708772613e-01
7.708600876e-01
7.711455554e-01
7.711266428e-01
7.710897624e-01
7.709034321e-01
7.707955369e-01
SCALARS gas_saturation float 1
LOOKUP_TABLE default
0.000000000e+00
0.000000000e+00
0.000000000e+00
0.000000000e+00
0.000000000e+00
0.000000000e+00
0.000000000e+00
0.000000000e+00
0.000000000e+00
0.000000000e+00
0.000000000e+00
0.000000000e+00
0.000000000e+00
0.000000000e+00
0.000000000e+00
0.000000000e+00
0.000000000e+00
0.000000000e+00
0.000000000e+00
0.000000000e+00
0.000000000e+00
0.000000000e+00
0.000000000e+00
0.000000000e+00
0.000000000e+00
0.000000000e+00
0.000000000e+00
0.000000000e+00
0.000000000e+00
0.000000000e+00
0.000000000e+00
0.000000000e+00
0.000000000e+00
0.000000000e+00
0.000000000e+00
0.000000000e+00
0.000000000e+00
0.000000000e+00
0.000000000e+00
0.000000000e+00
0.000000000e+00
0.000000000e+00
0.000000000e+00
0.000000000e+00
0.000000000e+00
0.000000000e+00
0.000000000e+00
0.000000000e+00
0.000000000e+00
0.000000000e+00
0.000000000e+00
0.000000000e+00
0.000000000e+00
0.000000000e+00
0.000000000e+00
0.000000000e+00
0.000000000e+00
0.000000000e+00
0.000000000e+00
0.000000000e+00
SCALARS Rs_sm3_sm3 float 1
LOOKUP_TABLE default
1.475800000e+02
1.475800000e+02
1.475800000e+02
1.475800000e+02
1.475800001e+02
1.475800000e+02
1.475800000e+02
1.475800000e+02
1.475800000e+02
1.475941042e+02
1.475800000e+02
1.475800001e+02
1.475800000e+02
1.475800000e+02
1.479887906e+02
1.475800000e+02
1.475800000e+02
1.475800000e+02
1.475800000e+02
1.598532313e+02
1.475800000e+02
1.475800000e+02
1.475800001e+02
1.475800000e+02
1.475799999e+02
1.475800000e+02
1.475800000e+02
1.475800001e+02
1.475799999e+02
1.476090857e+02
1.475800000e+02
1.475800000e+02
1.475800000e+02
1.475800000e+02
1.480776391e+02
1.475800000e+02
1.475800000e+02
1.475800000e+02
1.475800000e+02
1.601454859e+02
1.475800000e+02
1.475800001e+02
1.475800000e+02
1.475800001e+02
1.475800000e+02
1.475800001e+02
1.475800000e+02
1.475800000e+02
1.475800000e+02
1.475848945e+02
1.475800000e+02
1.475800000e+02
1.475800000e+02
1.475800000e+02
1.477821194e+02
1.475800001e+02
1.475800000e+02
1.475800000e+02
1.475800000e+02
1.606619687e+02
SCALARS phase_state_saturated float 1
LOOKUP_TABLE default
0.000000000e+00
0.000000000e+00
0.000000000e+00
0.000000000e+00
0.000000000e+00
0.000000000e+00
0.000000000e+00
0.000000000e+00
0.000000000e+00
0.000000000e+00
0.000000000e+00
0.000000000e+00
0.000000000e+00
0.000000000e+00
0.000000000e+00
0.000000000e+00
0.000000000e+00
0.000000000e+00
0.000000000e+00
0.000000000e+00
0.000000000e+00
0.000000000e+00
0.000000000e+00
0.000000000e+00
0.000000000e+00
0.000000000e+00
0.000000000e+00
0.000000000e+00
0.000000000e+00
0.000000000e+00
0.000000000e+00
0.000000000e+00
0.000000000e+00
0.000000000e+00
0.000000000e+00
0.000000000e+00
0.000000000e+00
0.000000000e+00
0.000000000e+00
0.000000000e+00
0.000000000e+00
0.000000000e+00
0.000000000e+00
0.000000000e+00
0.000000000e+00
0.000000000e+00
0.000000000e+00
0.000000000e+00
0.000000000e+00
0.000000000e+00
0.000000000e+00
0.000000000e+00
0.000000000e+00
0.000000000e+00
0.000000000e+00
0.000000000e+00
0.000000000e+00
0.000000000e+00
0.000000000e+00
0.000000000e+00
