# vtk DataFile Version 3.0
blackoil-framework 3D rectilinear-grid output
ASCII
DATASET RECTILINEAR_GRID
DIMENSIONS 6 5 4
X_COORDINATES 6 float
0.000000000e+00 5.200000000e+01 1.040000000e+02 1.560000000e+02 2.080000000e+02 2.600000000e+02
Y_COORDINATES 5 float
0.000000000e+00 5.500000000e+01 1.100000000e+02 1.650000000e+02 2.200000000e+02
Z_COORDINATES 4 float
0.000000000e+00 1.200000000e+01 2.400000000e+01 3.600000000e+01
CELL_DATA 60
SCALARS active float 1
LOOKUP_TABLE default
1.000000000e+00
1.000000000e+00
1.000000000e+00
1.000000000e+00
1.000000000e+00
1.000000000e+00
1.000000000e+00
1.000000000e+00
1.000000000e+00
1.000000000e+00
1.000000000e+00
1.000000000e+00
1.000000000e+00
1.000000000e+00
1.000000000e+00
1.000000000e+00
1.000000000e+00
1.000000000e+00
1.000000000e+00
1.000000000e+00
1.000000000e+00
1.000000000e+00
1.000000000e+00
1.000000000e+00
1.000000000e+00
1.000000000e+00
1.000000000e+00
1.000000000e+00
1.000000000e+00
1.000000000e+00
1.000000000e+00
1.000000000e+00
1.000000000e+00
1.000000000e+00
1.000000000e+00
1.000000000e+00
1.000000000e+00
1.000000000e+00
1.000000000e+00
1.000000000e+00
0.000000000e+00
1.000000000e+00
1.000000000e+00
1.000000000e+00
1.000000000e+00
1.000000000e+00
1.000000000e+00
1.000000000e+00
1.000000000e+00
1.000000000e+00
1.000000000e+00
1.000000000e+00
1.000000000e+00
1.000000000e+00
1.000000000e+00
1.000000000e+00
1.000000000e+00
1.000000000e+00
1.000000000e+00
1.000000000e+00
SCALARS zone_id float 1
LOOKUP_TABLE default
1.000000000e+00
1.000000000e+00
1.000000000e+00
1.000000000e+00
1.000000000e+00
1.000000000e+00
1.000000000e+00
1.000000000e+00
1.000000000e+00
1.000000000e+00
1.000000000e+00
1.000000000e+00
1.000000000e+00
1.000000000e+00
1.000000000e+00
1.000000000e+00
1.000000000e+00
1.000000000e+00
1.000000000e+00
1.000000000e+00
2.000000000e+00
2.000000000e+00
2.000000000e+00
2.000000000e+00
2.000000000e+00
2.000000000e+00
2.000000000e+00
2.000000000e+00
2.000000000e+00
2.000000000e+00
2.000000000e+00
2.000000000e+00
2.000000000e+00
2.000000000e+00
2.000000000e+00
2.000000000e+00
2.000000000e+00
2.000000000e+00
2.000000000e+00
2.000000000e+00
3.000000000e+00
3.000000000e+00
3.000000000e+00
3.000000000e+00
3.000000000e+00
3.000000000e+00
3.000000000e+00
3.000000000e+00
3.000000000e+00
3.000000000e+00
3.000000000e+00
3.000000000e+00
3.000000000e+00
3.000000000e+00
3.000000000e+00
3.000000000e+00
3.000000000e+00
3.000000000e+00
3.000000000e+00
3.000000000e+00
SCALARS fault_indicator float 1
LOOKUP_TABLE default
0.000000000e+00
0.000000000e+00
0.000000000e+00
0.000000000e+00
0.000000000e+00
0.000000000e+00
0.000000000e+00
1.000000000e+00
1.000000000e+00
0.000000000e+00
0.000000000e+00
0.000000000e+00
1.000000000e+00
1.000000000e+00
0.000000000e+00
0.000000000e+00
0.000000000e+00
1.000000000e+00
1.000000000e+00
0.000000000e+00
1.000000000e+00
1.000000000e+00
1.000000000e+00
1.000000000e+00
1.000000000e+00
0.000000000e+00
1.000000000e+00
1.000000000e+00
1.000000000e+00
1.000000000e+00
0.000000000e+00
1.000000000e+00
1.000000000e+00
1.000000000e+00
1.000000000e+00
0.000000000e+00
1.000000000e+00
1.000000000e+00
1.000000000e+00
1.000000000e+00
1.000000000e+00
1.000000000e+00
1.000000000e+00
1.000000000e+00
1.000000000e+00
1.000000000e+00
1.000000000e+00
1.000000000e+00
1.000000000e+00
1.000000000e+00
0.000000000e+00
1.000000000e+00
1.000000000e+00
1.000000000e+00
1.000000000e+00
0.000000000e+00
1.000000000e+00
1.000000000e+00
1.000000000e+00
1.000000000e+00
SCALARS porosity float 1
LOOKUP_TABLE default
2.480778528e-01
2.480778528e-01
2.480778528e-01
2.480778528e-01
2.480778528e-01
2.249512446e-01
2.249512446e-01
2.249512446e-01
2.249512446e-01
2.249512446e-01
2.333256879e-01
2.333256879e-01
2.333256879e-01
2.333256879e-01
2.333256879e-01
2.550000000e-01
2.550000000e-01
2.550000000e-01
2.550000000e-01
2.550000000e-01
2.117571501e-01
2.117571501e-01
2.117571501e-01
2.117571501e-01
2.117571501e-01
1.600000000e-01
1.600000000e-01
1.600000000e-01
1.600000000e-01
1.600000000e-01
1.804713806e-01
1.804713806e-01
1.804713806e-01
1.804713806e-01
1.804713806e-01
2.249193819e-01
2.249193819e-01
2.249193819e-01
2.249193819e-01
2.249193819e-01
1.985554711e-01
1.985554711e-01
1.985554711e-01
1.985554711e-01
1.985554711e-01
1.690497071e-01
1.690497071e-01
1.690497071e-01
1.690497071e-01
1.690497071e-01
1.799504631e-01
1.799504631e-01
1.799504631e-01
1.799504631e-01
1.799504631e-01
2.070594129e-01
2.070594129e-01
2.070594129e-01
2.070594129e-01
2.070594129e-01
SCALARS pore_volume_m3 float 1
LOOKUP_TABLE default
8.514031907e+03
8.514031907e+03
8.514031907e+03
8.514031907e+03
8.514031907e+03
7.720326715e+03
7.720326715e+03
7.720326715e+03
7.720326715e+03
7.720326715e+03
8.007737608e+03
8.007737608e+03
8.007737608e+03
8.007737608e+03
8.007737608e+03
8.751600000e+03
8.751600000e+03
8.751600000e+03
8.751600000e+03
8.751600000e+03
7.267505393e+03
7.267505393e+03
7.267505393e+03
7.267505393e+03
7.267505393e+03
5.491200000e+03
5.491200000e+03
5.491200000e+03
5.491200000e+03
5.491200000e+03
6.193777782e+03
6.193777782e+03
6.193777782e+03
6.193777782e+03
6.193777782e+03
7.719233188e+03
7.719233188e+03
7.719233188e+03
7.719233188e+03
7.719233188e+03
0.000000000e+00
6.814423768e+03
6.814423768e+03
6.814423768e+03
6.814423768e+03
5.801785946e+03
5.801785946e+03
5.801785946e+03
5.801785946e+03
5.801785946e+03
6.175899895e+03
6.175899895e+03
6.175899895e+03
6.175899895e+03
6.175899895e+03
7.106279050e+03
7.106279050e+03
7.106279050e+03
7.106279050e+03
7.106279050e+03
SCALARS kx_mD float 1
LOOKUP_TABLE default
2.001167515e+02
2.001167515e+02
2.001167515e+02
2.001167515e+02
2.001167515e+02
1.595010467e+02
1.595010467e+02
1.595010467e+02
1.595010467e+02
1.595010467e+02
1.731565272e+02
1.731565272e+02
1.731565272e+02
1.731565272e+02
1.731565272e+02
2.141765694e+02
2.141765694e+02
2.141765694e+02
2.141765694e+02
2.141765694e+02
1.401381492e+02
1.401381492e+02
1.401381492e+02
1.401381492e+02
1.401381492e+02
8.434700636e+01
8.434700636e+01
8.434700636e+01
8.434700636e+01
8.434700636e+01
1.031046487e+02
1.031046487e+02
1.031046487e+02
1.031046487e+02
1.031046487e+02
1.594512035e+02
1.594512035e+02
1.594512035e+02
1.594512035e+02
1.594512035e+02
1.231166833e+02
1.231166833e+02
1.231166833e+02
1.231166833e+02
1.231166833e+02
9.217680335e+01
9.217680335e+01
9.217680335e+01
9.217680335e+01
9.217680335e+01
1.025791571e+02
1.025791571e+02
1.025791571e+02
1.025791571e+02
1.025791571e+02
1.338270497e+02
1.338270497e+02
1.338270497e+02
1.338270497e+02
1.338270497e+02
SCALARS ky_mD float 1
LOOKUP_TABLE default
1.400817260e+02
1.400817260e+02
1.400817260e+02
1.400817260e+02
1.400817260e+02
1.116507327e+02
1.116507327e+02
1.116507327e+02
1.116507327e+02
1.116507327e+02
1.212095691e+02
1.212095691e+02
1.212095691e+02
1.212095691e+02
1.212095691e+02
1.499235986e+02
1.499235986e+02
1.499235986e+02
1.499235986e+02
1.499235986e+02
9.809670446e+01
9.809670446e+01
9.809670446e+01
9.809670446e+01
9.809670446e+01
5.904290445e+01
5.904290445e+01
5.904290445e+01
5.904290445e+01
5.904290445e+01
7.217325411e+01
7.217325411e+01
7.217325411e+01
7.217325411e+01
7.217325411e+01
1.116158425e+02
1.116158425e+02
1.116158425e+02
1.116158425e+02
1.116158425e+02
8.618167833e+01
8.618167833e+01
8.618167833e+01
8.618167833e+01
8.618167833e+01
6.452376235e+01
6.452376235e+01
6.452376235e+01
6.452376235e+01
6.452376235e+01
7.180540996e+01
7.180540996e+01
7.180540996e+01
7.180540996e+01
7.180540996e+01
9.367893480e+01
9.367893480e+01
9.367893480e+01
9.367893480e+01
9.367893480e+01
SCALARS kz_mD float 1
LOOKUP_TABLE default
1.600934012e+01
1.600934012e+01
1.600934012e+01
1.600934012e+01
1.600934012e+01
1.276008374e+01
1.276008374e+01
1.276008374e+01
1.276008374e+01
1.276008374e+01
1.385252218e+01
1.385252218e+01
1.385252218e+01
1.385252218e+01
1.385252218e+01
1.713412555e+01
1.713412555e+01
1.713412555e+01
1.713412555e+01
1.713412555e+01
1.121105194e+01
1.121105194e+01
1.121105194e+01
1.121105194e+01
1.121105194e+01
6.747760509e+00
6.747760509e+00
6.747760509e+00
6.747760509e+00
6.747760509e+00
8.248371898e+00
8.248371898e+00
8.248371898e+00
8.248371898e+00
8.248371898e+00
1.275609628e+01
1.275609628e+01
1.275609628e+01
1.275609628e+01
1.275609628e+01
9.849334666e+00
9.849334666e+00
9.849334666e+00
9.849334666e+00
9.849334666e+00
7.374144268e+00
7.374144268e+00
7.374144268e+00
7.374144268e+00
7.374144268e+00
8.206332567e+00
8.206332567e+00
8.206332567e+00
8.206332567e+00
8.206332567e+00
1.070616398e+01
1.070616398e+01
1.070616398e+01
1.070616398e+01
1.070616398e+01
SCALARS depth_m float 1
LOOKUP_TABLE default
1.586115000e+03
1.586895000e+03
1.587675000e+03
1.588455000e+03
1.589235000e+03
1.585565000e+03
1.586345000e+03
1.587125000e+03
1.587905000e+03
1.588685000e+03
1.585015000e+03
1.585795000e+03
1.586575000e+03
1.587355000e+03
1.588135000e+03
1.584465000e+03
1.585245000e+03
1.586025000e+03
1.586805000e+03
1.587585000e+03
1.598115000e+03
1.598895000e+03
1.599675000e+03
1.600455000e+03
1.601235000e+03
1.597565000e+03
1.598345000e+03
1.599125000e+03
1.599905000e+03
1.600685000e+03
1.597015000e+03
1.597795000e+03
1.598575000e+03
1.599355000e+03
1.600135000e+03
1.596465000e+03
1.597245000e+03
1.598025000e+03
1.598805000e+03
1.599585000e+03
1.610115000e+03
1.610895000e+03
1.611675000e+03
1.612455000e+03
1.613235000e+03
1.609565000e+03
1.610345000e+03
1.611125000e+03
1.611905000e+03
1.612685000e+03
1.609015000e+03
1.609795000e+03
1.610575000e+03
1.611355000e+03
1.612135000e+03
1.608465000e+03
1.609245000e+03
1.610025000e+03
1.610805000e+03
1.611585000e+03
SCALARS well_id float 1
LOOKUP_TABLE default
1.000000000e+00
0.000000000e+00
0.000000000e+00
0.000000000e+00
0.000000000e+00
0.000000000e+00
0.000000000e+00
0.000000000e+00
0.000000000e+00
0.000000000e+00
0.000000000e+00
0.000000000e+00
0.000000000e+00
0.000000000e+00
0.000000000e+00
0.000000000e+00
0.000000000e+00
0.000000000e+00
0.000000000e+00
2.000000000e+00
1.000000000e+00
0.000000000e+00
0.000000000e+00
0.000000000e+00
0.000000000e+00
0.000000000e+00
0.000000000e+00
3.000000000e+00
3.000000000e+00
3.000000000e+00
0.000000000e+00
0.000000000e+00
0.000000000e+00
0.000000000e+00
0.000000000e+00
0.000000000e+00
0.000000000e+00
0.000000000e+00
0.000000000e+00
2.000000000e+00
0.000000000e+00
0.000000000e+00
0.000000000e+00
0.000000000e+00
0.000000000e+00
0.000000000e+00
0.000000000e+00
0.000000000e+00
0.000000000e+00
0.000000000e+00
0.000000000e+00
0.000000000e+00
0.000000000e+00
0.000000000e+00
0.000000000e+00
0.000000000e+00
0.000000000e+00
0.000000000e+00
0.000000000e+00
2.000000000e+00
SCALARS completion_count float 1
LOOKUP_TABLE default
1.000000000e+00
0.000000000e+00
0.000000000e+00
0.000000000e+00
0.000000000e+00
0.000000000e+00
0.000000000e+00
0.000000000e+00
0.000000000e+00
0.000000000e+00
0.000000000e+00
0.000000000e+00
0.000000000e+00
0.000000000e+00
0.000000000e+00
0.000000000e+00
0.000000000e+00
0.000000000e+00
0.000000000e+00
1.000000000e+00
1.000000000e+00
0.000000000e+00
0.000000000e+00
0.000000000e+00
0.000000000e+00
0.000000000e+00
0.000000000e+00
1.000000000e+00
1.000000000e+00
1.000000000e+00
0.000000000e+00
0.000000000e+00
0.000000000e+00
0.000000000e+00
0.000000000e+00
0.000000000e+00
0.000000000e+00
0.000000000e+00
0.000000000e+00
1.000000000e+00
0.000000000e+00
0.000000000e+00
0.000000000e+00
0.000000000e+00
0.000000000e+00
0.000000000e+00
0.000000000e+00
0.000000000e+00
0.000000000e+00
0.000000000e+00
0.000000000e+00
0.000000000e+00
0.000000000e+00
0.000000000e+00
0.000000000e+00
0.000000000e+00
0.000000000e+00
0.000000000e+00
0.000000000e+00
1.000000000e+00
SCALARS completion_wi float 1
LOOKUP_TABLE default
2.666711914e-12
0.000000000e+00
0.000000000e+00
0.000000000e+00
0.000000000e+00
0.000000000e+00
0.000000000e+00
0.000000000e+00
0.000000000e+00
0.000000000e+00
0.000000000e+00
0.000000000e+00
0.000000000e+00
0.000000000e+00
0.000000000e+00
0.000000000e+00
0.000000000e+00
0.000000000e+00
0.000000000e+00
2.854069963e-12
1.867450223e-12
0.000000000e+00
0.000000000e+00
0.000000000e+00
0.000000000e+00
0.000000000e+00
0.000000000e+00
1.678147030e-12
1.678147030e-12
1.678147030e-12
0.000000000e+00
0.000000000e+00
0.000000000e+00
0.000000000e+00
0.000000000e+00
0.000000000e+00
0.000000000e+00
0.000000000e+00
0.000000000e+00
2.124811746e-12
0.000000000e+00
0.000000000e+00
0.000000000e+00
0.000000000e+00
0.000000000e+00
0.000000000e+00
0.000000000e+00
0.000000000e+00
0.000000000e+00
0.000000000e+00
0.000000000e+00
0.000000000e+00
0.000000000e+00
0.000000000e+00
0.000000000e+00
0.000000000e+00
0.000000000e+00
0.000000000e+00
0.000000000e+00
1.783349896e-12
SCALARS pressure_bar float 1
LOOKUP_TABLE default
3.119706684e+02
2.832199653e+02
2.626064923e+02
2.471810332e+02
2.401308083e+02
2.820787041e+02
2.703408485e+02
2.555555849e+02
2.337277583e+02
2.304644940e+02
2.695030171e+02
2.648450689e+02
2.583710245e+02
2.377450746e+02
2.354121131e+02
2.655171351e+02
2.630505473e+02
2.592317371e+02
2.406562927e+02
2.387233207e+02
3.124470662e+02
2.816727343e+02
2.609332039e+02
2.463397107e+02
2.395575095e+02
2.805411532e+02
2.676372794e+02
2.385414720e+02
2.202434011e+02
2.173986524e+02
2.694238072e+02
2.648063913e+02
2.574144788e+02
2.371670762e+02
2.348995562e+02
2.660878231e+02
2.636857018e+02
2.598643281e+02
2.414171161e+02
2.394957934e+02
2.600000000e+02
2.697375388e+02
2.592953991e+02
2.477288970e+02
2.418166755e+02
2.742825627e+02
2.667286406e+02
2.558547410e+02
2.364763047e+02
2.336133545e+02
2.690708367e+02
2.651356479e+02
2.595805137e+02
2.399016953e+02
2.376879540e+02
2.666898232e+02
2.643671187e+02
2.607752092e+02
2.427561570e+02
2.407033899e+02
SCALARS water_saturation float 1
LOOKUP_TABLE default
2.287427309e-01
2.292273442e-01
2.294755740e-01
2.297261975e-01
2.298612309e-01
2.289774792e-01
2.294330170e-01
2.296160329e-01
2.298877891e-01
2.299474691e-01
2.295330798e-01
2.296006096e-01
2.296702379e-01
2.299220905e-01
2.299550086e-01
2.296145360e-01
2.296438311e-01
2.296857280e-01
2.298968707e-01
2.298966049e-01
2.287802785e-01
2.292978888e-01
2.295544552e-01
2.297953636e-01
2.299183039e-01
2.290231308e-01
2.295021232e-01
2.297784818e-01
2.304182336e-01
2.305733955e-01
2.295784490e-01
2.296487543e-01
2.297209507e-01
2.299705626e-01
2.300014497e-01
2.296508665e-01
2.296908043e-01
2.297326420e-01
2.299432710e-01
2.299396268e-01
2.300000000e-01
2.295194018e-01
2.296561775e-01
2.298111587e-01
2.299170202e-01
2.295044968e-01
2.295862542e-01
2.296966746e-01
2.299415486e-01
2.299829420e-01
2.296172942e-01
2.296522296e-01
2.297117091e-01
2.299576730e-01
2.299826405e-01
2.296714423e-01
2.296855214e-01
2.297255588e-01
2.299171178e-01
2.299274154e-01
SCALARS oil_saturation float 1
LOOKUP_TABLE default
7.712572691e-01
7.707726558e-01
7.705244260e-01
7.702738025e-01
7.686675478e-01
7.710225208e-01
7.705669830e-01
7.703839671e-01
7.533448829e-01
7.462362928e-01
7.704669202e-01
7.703993904e-01
7.703297621e-01
7.626089667e-01
7.576726078e-01
7.703854640e-01
7.703561689e-01
7.703142720e-01
7.695903320e-01
7.425905296e-01
7.712197215e-01
7.707021112e-01
7.704455448e-01
7.702046364e-01
7.675420676e-01
7.709768692e-01
7.704978768e-01
7.622267292e-01
7.354590373e-01
7.329719769e-01
7.704215510e-01
7.703512457e-01
7.702790493e-01
7.614816701e-01
7.550817833e-01
7.703491335e-01
7.703091957e-01
7.702673580e-01
7.700567290e-01
7.439823736e-01
7.700000000e-01
7.704805982e-01
7.703438225e-01
7.701888413e-01
7.700829798e-01
7.704955032e-01
7.704137458e-01
7.703033254e-01
7.600041241e-01
7.536694447e-01
7.703827058e-01
7.703477704e-01
7.702882909e-01
7.675653617e-01
7.633167949e-01
7.703285577e-01
7.703144786e-01
7.702744412e-01
7.700828822e-01
7.434542748e-01
SCALARS gas_saturation float 1
LOOKUP_TABLE default
0.000000000e+00
0.000000000e+00
0.000000000e+00
0.000000000e+00
1.471221273e-03
0.000000000e+00
0.000000000e+00
0.000000000e+00
1.676732805e-02
2.381623809e-02
0.000000000e+00
0.000000000e+00
0.000000000e+00
7.468942805e-03
1.237238359e-02
0.000000000e+00
0.000000000e+00
0.000000000e+00
5.127973540e-04
2.751286546e-02
0.000000000e+00
0.000000000e+00
0.000000000e+00
0.000000000e+00
2.539628457e-03
0.000000000e+00
0.000000000e+00
7.994788913e-03
3.412272913e-02
3.645462763e-02
0.000000000e+00
0.000000000e+00
0.000000000e+00
8.547767327e-03
1.491676700e-02
0.000000000e+00
0.000000000e+00
0.000000000e+00
0.000000000e+00
2.607799959e-02
0.000000000e+00
0.000000000e+00
0.000000000e+00
0.000000000e+00
0.000000000e+00
0.000000000e+00
0.000000000e+00
0.000000000e+00
1.005432730e-02
1.634761328e-02
0.000000000e+00
0.000000000e+00
0.000000000e+00
2.476965334e-03
6.700564569e-03
0.000000000e+00
0.000000000e+00
0.000000000e+00
0.000000000e+00
2.661830974e-02
SCALARS Rs_sm3_sm3 float 1
LOOKUP_TABLE default
1.475799999e+02
1.475800000e+02
1.475800000e+02
1.475799999e+02
1.478680203e+02
1.475800000e+02
1.475800000e+02
1.475800000e+02
1.445384343e+02
1.428415369e+02
1.475800001e+02
1.475800001e+02
1.475800000e+02
1.466274388e+02
1.454142988e+02
1.475800001e+02
1.475800000e+02
1.475800000e+02
1.481412722e+02
1.471361267e+02
1.475800000e+02
1.475800000e+02
1.475800000e+02
1.475800000e+02
1.475699050e+02
1.475800000e+02
1.475800000e+02
1.470415654e+02
1.371460407e+02
1.354391914e+02
1.475800000e+02
1.475800000e+02
1.475800000e+02
1.463268796e+02
1.451477692e+02
1.475800000e+02
1.475800000e+02
1.475800000e+02
1.485369004e+02
1.475378126e+02
1.475800000e+02
1.475800001e+02
1.475800000e+02
1.475800000e+02
1.487446713e+02
1.475800000e+02
1.475800000e+02
1.475800000e+02
1.459676784e+02
1.444789444e+02
1.475800000e+02
1.475800000e+02
1.475800001e+02
1.477488815e+02
1.465977361e+02
1.475800000e+02
1.475799999e+02
1.475800000e+02
1.475799298e+02
1.481657627e+02
SCALARS phase_state_saturated float 1
LOOKUP_TABLE default
0.000000000e+00
0.000000000e+00
0.000000000e+00
0.000000000e+00
1.000000000e+00
0.000000000e+00
0.000000000e+00
0.000000000e+00
1.000000000e+00
1.000000000e+00
0.000000000e+00
0.000000000e+00
0.000000000e+00
1.000000000e+00
1.000000000e+00
0.000000000e+00
0.000000000e+00
0.000000000e+00
1.000000000e+00
1.000000000e+00
0.000000000e+00
0.000000000e+00
0.000000000e+00
0.000000000e+00
1.000000000e+00
0.000000000e+00
0.000000000e+00
1.000000000e+00
1.000000000e+00
1.000000000e+00
0.000000000e+00
0.000000000e+00
0.000000000e+00
1.000000000e+00
1.000000000e+00
0.000000000e+00
0.000000000e+00
0.000000000e+00
0.000000000e+00
1.000000000e+00
0.000000000e+00
0.000000000e+00
0.000000000e+00
0.000000000e+00
0.000000000e+00
0.000000000e+00
0.000000000e+00
0.000000000e+00
1.000000000e+00
1.000000000e+00
0.000000000e+00
0.000000000e+00
0.000000000e+00
1.000000000e+00
1.000000000e+00
0.000000000e+00
0.000000000e+00
0.000000000e+00
0.000000000e+00
1.000000000e+00
