# vtk DataFile Version 3.0
blackoil-framework 3D well trajectories
ASCII
DATASET POLYDATA
POINTS 6 float
3.800000000e+01 4.200000000e+01 0.000000000e+00
3.800000000e+01 4.200000000e+01 3.600000000e+01
2.260000000e+02 1.840000000e+02 0.000000000e+00
2.260000000e+02 1.840000000e+02 3.600000000e+01
1.200000000e+02 1.040000000e+02 1.800000000e+01
2.420000000e+02 1.040000000e+02 1.800000000e+01
LINES 3 9
2 0 1
2 2 3
2 4 5
CELL_DATA 3
SCALARS well_id int 1
LOOKUP_TABLE default
1
2
3
