# vtk DataFile Version 3.0
blackoil-framework 3D completion points
ASCII
DATASET POLYDATA
POINTS 8 float
2.600000000e+01 2.750000000e+01 6.000000000e+00
2.600000000e+01 2.750000000e+01 1.800000000e+01
2.340000000e+02 1.925000000e+02 6.000000000e+00
2.340000000e+02 1.925000000e+02 1.800000000e+01
2.340000000e+02 1.925000000e+02 3.000000000e+01
1.300000000e+02 8.250000000e+01 1.800000000e+01
1.820000000e+02 8.250000000e+01 1.800000000e+01
2.340000000e+02 8.250000000e+01 1.800000000e+01
VERTICES 8 16
1 0
1 1
1 2
1 3
1 4
1 5
1 6
1 7
POINT_DATA 8
SCALARS well_id int 1
LOOKUP_TABLE default
1
1
2
2
2
3
3
3
SCALARS completion_id int 1
LOOKUP_TABLE default
0
1
0
1
2
0
1
2
SCALARS cell int 1
LOOKUP_TABLE default
0
20
19
39
59
27
28
29
SCALARS i int 1
LOOKUP_TABLE default
0
0
4
4
4
2
3
4
SCALARS j int 1
LOOKUP_TABLE default
0
0
3
3
3
1
1
1
SCALARS k int 1
LOOKUP_TABLE default
0
1
0
1
2
1
1
1
SCALARS well_index float 1
LOOKUP_TABLE default
2.6667119141508e-12
1.867450222916271e-12
2.854069962618571e-12
2.1248117460739168e-12
1.7833498958703824e-12
1.6781470296541206e-12
1.6781470296541206e-12
1.6781470296541206e-12
SCALARS is_open int 1
LOOKUP_TABLE default
1
1
1
1
1
1
1
1
