# vtk DataFile Version 3.0
blackoil-framework 3D well trajectories
ASCII
DATASET POLYDATA
POINTS 6 float
1.050000000e+02 1.200000000e+02 0.000000000e+00
1.050000000e+02 1.200000000e+02 5.600000000e+01
7.900000000e+02 4.100000000e+02 0.000000000e+00
7.900000000e+02 4.100000000e+02 5.600000000e+01
4.700000000e+02 2.450000000e+02 2.800000000e+01
8.300000000e+02 2.450000000e+02 2.800000000e+01
LINES 3 9
2 0 1
2 2 3
2 4 5
CELL_DATA 3
SCALARS well_id int 1
LOOKUP_TABLE default
1
2
3
