# vtk DataFile Version 3.0
blackoil-framework 3D completion points
ASCII
DATASET POLYDATA
POINTS 27 float
1.050000000e+02 1.350000000e+02 4.000000000e+00
1.050000000e+02 1.350000000e+02 1.200000000e+01
1.050000000e+02 1.350000000e+02 2.000000000e+01
1.050000000e+02 1.350000000e+02 2.800000000e+01
1.050000000e+02 1.350000000e+02 3.600000000e+01
1.050000000e+02 1.350000000e+02 4.400000000e+01
1.050000000e+02 1.350000000e+02 5.200000000e+01
7.950000000e+02 4.050000000e+02 4.000000000e+00
7.950000000e+02 4.050000000e+02 1.200000000e+01
7.950000000e+02 4.050000000e+02 2.000000000e+01
7.950000000e+02 4.050000000e+02 2.800000000e+01
7.950000000e+02 4.050000000e+02 3.600000000e+01
7.950000000e+02 4.050000000e+02 4.400000000e+01
7.950000000e+02 4.050000000e+02 5.200000000e+01
4.650000000e+02 2.550000000e+02 2.800000000e+01
4.950000000e+02 2.550000000e+02 2.800000000e+01
5.250000000e+02 2.550000000e+02 2.800000000e+01
5.550000000e+02 2.550000000e+02 2.800000000e+01
5.850000000e+02 2.550000000e+02 2.800000000e+01
6.150000000e+02 2.550000000e+02 2.800000000e+01
6.450000000e+02 2.550000000e+02 2.800000000e+01
6.750000000e+02 2.550000000e+02 2.800000000e+01
7.050000000e+02 2.550000000e+02 2.800000000e+01
7.350000000e+02 2.550000000e+02 2.800000000e+01
7.650000000e+02 2.550000000e+02 2.800000000e+01
7.950000000e+02 2.550000000e+02 2.800000000e+01
8.250000000e+02 2.550000000e+02 2.800000000e+01
VERTICES 27 54
1 0
1 1
1 2
1 3
1 4
1 5
1 6
1 7
1 8
1 9
1 10
1 11
1 12
1 13
1 14
1 15
1 16
1 17
1 18
1 19
1 20
1 21
1 22
1 23
1 24
1 25
1 26
POINT_DATA 27
SCALARS well_id int 1
LOOKUP_TABLE default
1
1
1
1
1
1
1
2
2
2
2
2
2
2
3
3
3
3
3
3
3
3
3
3
3
3
3
SCALARS completion_id int 1
LOOKUP_TABLE default
0
1
2
3
4
5
6
0
1
2
3
4
5
6
0
1
2
3
4
5
6
7
8
9
10
11
12
SCALARS cell int 1
LOOKUP_TABLE default
123
663
1203
1743
2283
2823
3363
416
956
1496
2036
2576
3116
3656
1875
1876
1877
1878
1879
1880
1881
1882
1883
1884
1885
1886
1887
SCALARS i int 1
LOOKUP_TABLE default
3
3
3
3
3
3
3
26
26
26
26
26
26
26
15
16
17
18
19
20
21
22
23
24
25
26
27
SCALARS j int 1
LOOKUP_TABLE default
4
4
4
4
4
4
4
13
13
13
13
13
13
13
8
8
8
8
8
8
8
8
8
8
8
8
8
SCALARS k int 1
LOOKUP_TABLE default
0
1
2
3
4
5
6
0
1
2
3
4
5
6
3
3
3
3
3
3
3
3
3
3
3
3
3
SCALARS well_index float 1
LOOKUP_TABLE default
2.6984280137609794e-12
2.729510800997356e-12
1.4566884118407765e-12
1.4549416137141852e-12
6.727493368089076e-13
6.421670099074828e-13
2.9787258739661217e-13
2.8627909335052127e-12
3.0391929036285014e-12
1.87762620853518e-12
1.8677127272056265e-12
9.64754296022451e-13
7.911925534624987e-13
3.527407931751551e-13
2.8765809638612424e-12
2.8765809638612424e-12
2.8765809638612424e-12
2.8765809638612424e-12
2.8765809638612424e-12
2.8765809638612424e-12
2.8765809638612424e-12
2.8765809638612424e-12
2.8765809638612424e-12
2.8765809638612424e-12
2.8765809638612424e-12
2.8765809638612424e-12
2.8765809638612424e-12
SCALARS is_open int 1
LOOKUP_TABLE default
1
1
1
1
1
1
1
1
1
1
1
1
1
1
1
1
1
1
1
1
1
1
1
1
1
1
1
