# vtk DataFile Version 3.0
blackoil-framework Step 6A 3D structured-grid output
ASCII
DATASET RECTILINEAR_GRID
DIMENSIONS 25 17 7
X_COORDINATES 25 float
0.000000000e+00 3.000000000e+01 6.000000000e+01 9.000000000e+01 1.200000000e+02 1.500000000e+02 1.800000000e+02 2.100000000e+02 2.400000000e+02 2.700000000e+02 3.000000000e+02 3.300000000e+02 3.600000000e+02 3.900000000e+02 4.200000000e+02 4.500000000e+02 4.800000000e+02 5.100000000e+02 5.400000000e+02 5.700000000e+02 6.000000000e+02 6.300000000e+02 6.600000000e+02 6.900000000e+02 7.200000000e+02
Y_COORDINATES 17 float
0.000000000e+00 3.000000000e+01 6.000000000e+01 9.000000000e+01 1.200000000e+02 1.500000000e+02 1.800000000e+02 2.100000000e+02 2.400000000e+02 2.700000000e+02 3.000000000e+02 3.300000000e+02 3.600000000e+02 3.900000000e+02 4.200000000e+02 4.500000000e+02 4.800000000e+02
Z_COORDINATES 7 float
0.000000000e+00 6.000000000e+00 1.200000000e+01 1.800000000e+01 2.400000000e+01 3.000000000e+01 3.600000000e+01
CELL_DATA 2304
SCALARS pressure_bar float 1
LOOKUP_TABLE default
2.597750000e+02
2.594090000e+02
2.590430000e+02
2.586770000e+02
2.583110000e+02
2.579450000e+02
2.575790000e+02
2.572130000e+02
2.568470000e+02
2.564810000e+02
2.561150000e+02
2.557490000e+02
2.553830000e+02
2.550170000e+02
2.546510000e+02
2.542850000e+02
2.539190000e+02
2.535530000e+02
2.531870000e+02
2.528210000e+02
2.524550000e+02
2.520890000e+02
2.517230000e+02
2.513570000e+02
2.598110000e+02
2.594450000e+02
2.590790000e+02
2.587130000e+02
2.583470000e+02
2.579810000e+02
2.576150000e+02
2.572490000e+02
2.568830000e+02
2.565170000e+02
2.561510000e+02
2.557850000e+02
2.554190000e+02
2.550530000e+02
2.546870000e+02
2.543210000e+02
2.539550000e+02
2.535890000e+02
2.532230000e+02
2.528570000e+02
2.524910000e+02
2.521250000e+02
2.517590000e+02
2.513930000e+02
2.598470000e+02
2.594810000e+02
2.591150000e+02
2.587490000e+02
2.583830000e+02
2.580170000e+02
2.576510000e+02
2.572850000e+02
2.569190000e+02
2.565530000e+02
2.561870000e+02
2.558210000e+02
2.554550000e+02
2.550890000e+02
2.547230000e+02
2.543570000e+02
2.539910000e+02
2.536250000e+02
2.532590000e+02
2.528930000e+02
2.525270000e+02
2.521610000e+02
2.517950000e+02
2.514290000e+02
2.598830000e+02
2.595170000e+02
2.591510000e+02
2.587850000e+02
2.584190000e+02
2.580530000e+02
2.576870000e+02
2.573210000e+02
2.569550000e+02
2.565890000e+02
2.562230000e+02
2.558570000e+02
2.554910000e+02
2.551250000e+02
2.547590000e+02
2.543930000e+02
2.540270000e+02
2.536610000e+02
2.532950000e+02
2.529290000e+02
2.525630000e+02
2.521970000e+02
2.518310000e+02
2.514650000e+02
2.599190000e+02
2.595530000e+02
2.591870000e+02
2.588210000e+02
2.584550000e+02
2.580890000e+02
2.577230000e+02
2.573570000e+02
2.569910000e+02
2.566250000e+02
2.562590000e+02
2.558930000e+02
2.555270000e+02
2.551610000e+02
2.547950000e+02
2.544290000e+02
2.540630000e+02
2.536970000e+02
2.533310000e+02
2.529650000e+02
2.525990000e+02
2.522330000e+02
2.518670000e+02
2.515010000e+02
2.599550000e+02
2.595890000e+02
2.592230000e+02
2.588570000e+02
2.584910000e+02
2.581250000e+02
2.577590000e+02
2.573930000e+02
2.570270000e+02
2.566610000e+02
2.562950000e+02
2.559290000e+02
2.555630000e+02
2.551970000e+02
2.548310000e+02
2.544650000e+02
2.540990000e+02
2.537330000e+02
2.533670000e+02
2.530010000e+02
2.526350000e+02
2.522690000e+02
2.519030000e+02
2.515370000e+02
2.599910000e+02
2.596250000e+02
2.592590000e+02
2.588930000e+02
2.585270000e+02
2.581610000e+02
2.577950000e+02
2.574290000e+02
2.570630000e+02
2.566970000e+02
2.563310000e+02
2.559650000e+02
2.555990000e+02
2.552330000e+02
2.548670000e+02
2.545010000e+02
2.541350000e+02
2.537690000e+02
2.534030000e+02
2.530370000e+02
2.526710000e+02
2.523050000e+02
2.519390000e+02
2.515730000e+02
2.600270000e+02
2.596610000e+02
2.592950000e+02
2.589290000e+02
2.585630000e+02
2.581970000e+02
2.578310000e+02
2.574650000e+02
2.570990000e+02
2.567330000e+02
2.563670000e+02
2.560010000e+02
2.556350000e+02
2.552690000e+02
2.549030000e+02
2.545370000e+02
2.541710000e+02
2.538050000e+02
2.534390000e+02
2.530730000e+02
2.527070000e+02
2.523410000e+02
2.519750000e+02
2.516090000e+02
2.600630000e+02
2.596970000e+02
2.593310000e+02
2.589650000e+02
2.585990000e+02
2.582330000e+02
2.578670000e+02
2.575010000e+02
2.571350000e+02
2.567690000e+02
2.564030000e+02
2.560370000e+02
2.556710000e+02
2.553050000e+02
2.549390000e+02
2.545730000e+02
2.542070000e+02
2.538410000e+02
2.534750000e+02
2.531090000e+02
2.527430000e+02
2.523770000e+02
2.520110000e+02
2.516450000e+02
2.600990000e+02
2.597330000e+02
2.593670000e+02
2.590010000e+02
2.586350000e+02
2.582690000e+02
2.579030000e+02
2.575370000e+02
2.571710000e+02
2.568050000e+02
2.564390000e+02
2.560730000e+02
2.557070000e+02
2.553410000e+02
2.549750000e+02
2.546090000e+02
2.542430000e+02
2.538770000e+02
2.535110000e+02
2.531450000e+02
2.527790000e+02
2.524130000e+02
2.520470000e+02
2.516810000e+02
2.601350000e+02
2.597690000e+02
2.594030000e+02
2.590370000e+02
2.586710000e+02
2.583050000e+02
2.579390000e+02
2.575730000e+02
2.572070000e+02
2.568410000e+02
2.564750000e+02
2.561090000e+02
2.557430000e+02
2.553770000e+02
2.550110000e+02
2.546450000e+02
2.542790000e+02
2.539130000e+02
2.535470000e+02
2.531810000e+02
2.528150000e+02
2.524490000e+02
2.520830000e+02
2.517170000e+02
2.601710000e+02
2.598050000e+02
2.594390000e+02
2.590730000e+02
2.587070000e+02
2.583410000e+02
2.579750000e+02
2.576090000e+02
2.572430000e+02
2.568770000e+02
2.565110000e+02
2.561450000e+02
2.557790000e+02
2.554130000e+02
2.550470000e+02
2.546810000e+02
2.543150000e+02
2.539490000e+02
2.535830000e+02
2.532170000e+02
2.528510000e+02
2.524850000e+02
2.521190000e+02
2.517530000e+02
2.602070000e+02
2.598410000e+02
2.594750000e+02
2.591090000e+02
2.587430000e+02
2.583770000e+02
2.580110000e+02
2.576450000e+02
2.572790000e+02
2.569130000e+02
2.565470000e+02
2.561810000e+02
2.558150000e+02
2.554490000e+02
2.550830000e+02
2.547170000e+02
2.543510000e+02
2.539850000e+02
2.536190000e+02
2.532530000e+02
2.528870000e+02
2.525210000e+02
2.521550000e+02
2.517890000e+02
2.602430000e+02
2.598770000e+02
2.595110000e+02
2.591450000e+02
2.587790000e+02
2.584130000e+02
2.580470000e+02
2.576810000e+02
2.573150000e+02
2.569490000e+02
2.565830000e+02
2.562170000e+02
2.558510000e+02
2.554850000e+02
2.551190000e+02
2.547530000e+02
2.543870000e+02
2.540210000e+02
2.536550000e+02
2.532890000e+02
2.529230000e+02
2.525570000e+02
2.521910000e+02
2.518250000e+02
2.602790000e+02
2.599130000e+02
2.595470000e+02
2.591810000e+02
2.588150000e+02
2.584490000e+02
2.580830000e+02
2.577170000e+02
2.573510000e+02
2.569850000e+02
2.566190000e+02
2.562530000e+02
2.558870000e+02
2.555210000e+02
2.551550000e+02
2.547890000e+02
2.544230000e+02
2.540570000e+02
2.536910000e+02
2.533250000e+02
2.529590000e+02
2.525930000e+02
2.522270000e+02
2.518610000e+02
2.603150000e+02
2.599490000e+02
2.595830000e+02
2.592170000e+02
2.588510000e+02
2.584850000e+02
2.581190000e+02
2.577530000e+02
2.573870000e+02
2.570210000e+02
2.566550000e+02
2.562890000e+02
2.559230000e+02
2.555570000e+02
2.551910000e+02
2.548250000e+02
2.544590000e+02
2.540930000e+02
2.537270000e+02
2.533610000e+02
2.529950000e+02
2.526290000e+02
2.522630000e+02
2.518970000e+02
2.602550000e+02
2.598890000e+02
2.595230000e+02
2.591570000e+02
2.587910000e+02
2.584250000e+02
2.580590000e+02
2.576930000e+02
2.573270000e+02
2.569610000e+02
2.565950000e+02
2.562290000e+02
2.558630000e+02
2.554970000e+02
2.551310000e+02
2.547650000e+02
2.543990000e+02
2.540330000e+02
2.536670000e+02
2.533010000e+02
2.529350000e+02
2.525690000e+02
2.522030000e+02
2.518370000e+02
2.602910000e+02
2.599250000e+02
2.595590000e+02
2.591930000e+02
2.588270000e+02
2.584610000e+02
2.580950000e+02
2.577290000e+02
2.573630000e+02
2.569970000e+02
2.566310000e+02
2.562650000e+02
2.558990000e+02
2.555330000e+02
2.551670000e+02
2.548010000e+02
2.544350000e+02
2.540690000e+02
2.537030000e+02
2.533370000e+02
2.529710000e+02
2.526050000e+02
2.522390000e+02
2.518730000e+02
2.603270000e+02
2.599610000e+02
2.595950000e+02
2.592290000e+02
2.588630000e+02
2.584970000e+02
2.581310000e+02
2.577650000e+02
2.573990000e+02
2.570330000e+02
2.566670000e+02
2.563010000e+02
2.559350000e+02
2.555690000e+02
2.552030000e+02
2.548370000e+02
2.544710000e+02
2.541050000e+02
2.537390000e+02
2.533730000e+02
2.530070000e+02
2.526410000e+02
2.522750000e+02
2.519090000e+02
2.603630000e+02
2.599970000e+02
2.596310000e+02
2.592650000e+02
2.588990000e+02
2.585330000e+02
2.581670000e+02
2.578010000e+02
2.574350000e+02
2.570690000e+02
2.567030000e+02
2.563370000e+02
2.559710000e+02
2.556050000e+02
2.552390000e+02
2.548730000e+02
2.545070000e+02
2.541410000e+02
2.537750000e+02
2.534090000e+02
2.530430000e+02
2.526770000e+02
2.523110000e+02
2.519450000e+02
2.603990000e+02
2.600330000e+02
2.596670000e+02
2.593010000e+02
2.589350000e+02
2.585690000e+02
2.582030000e+02
2.578370000e+02
2.574710000e+02
2.571050000e+02
2.567390000e+02
2.563730000e+02
2.560070000e+02
2.556410000e+02
2.552750000e+02
2.549090000e+02
2.545430000e+02
2.541770000e+02
2.538110000e+02
2.534450000e+02
2.530790000e+02
2.527130000e+02
2.523470000e+02
2.519810000e+02
2.604350000e+02
2.600690000e+02
2.597030000e+02
2.593370000e+02
2.589710000e+02
2.586050000e+02
2.582390000e+02
2.578730000e+02
2.575070000e+02
2.571410000e+02
2.567750000e+02
2.564090000e+02
2.560430000e+02
2.556770000e+02
2.553110000e+02
2.549450000e+02
2.545790000e+02
2.542130000e+02
2.538470000e+02
2.534810000e+02
2.531150000e+02
2.527490000e+02
2.523830000e+02
2.520170000e+02
2.604710000e+02
2.601050000e+02
2.597390000e+02
2.593730000e+02
2.590070000e+02
2.586410000e+02
2.582750000e+02
2.579090000e+02
2.575430000e+02
2.571770000e+02
2.568110000e+02
2.564450000e+02
2.560790000e+02
2.557130000e+02
2.553470000e+02
2.549810000e+02
2.546150000e+02
2.542490000e+02
2.538830000e+02
2.535170000e+02
2.531510000e+02
2.527850000e+02
2.524190000e+02
2.520530000e+02
2.605070000e+02
2.601410000e+02
2.597750000e+02
2.594090000e+02
2.590430000e+02
2.586770000e+02
2.583110000e+02
2.579450000e+02
2.575790000e+02
2.572130000e+02
2.568470000e+02
2.564810000e+02
2.561150000e+02
2.557490000e+02
2.553830000e+02
2.550170000e+02
2.546510000e+02
2.542850000e+02
2.539190000e+02
2.535530000e+02
2.531870000e+02
2.528210000e+02
2.524550000e+02
2.520890000e+02
2.605430000e+02
2.601770000e+02
2.598110000e+02
2.594450000e+02
2.590790000e+02
2.587130000e+02
2.583470000e+02
2.579810000e+02
2.576150000e+02
2.572490000e+02
2.568830000e+02
2.565170000e+02
2.561510000e+02
2.557850000e+02
2.554190000e+02
2.550530000e+02
2.546870000e+02
2.543210000e+02
2.539550000e+02
2.535890000e+02
2.532230000e+02
2.528570000e+02
2.524910000e+02
2.521250000e+02
2.605790000e+02
2.602130000e+02
2.598470000e+02
2.594810000e+02
2.591150000e+02
2.587490000e+02
2.583830000e+02
2.580170000e+02
2.576510000e+02
2.572850000e+02
2.569190000e+02
2.565530000e+02
2.561870000e+02
2.558210000e+02
2.554550000e+02
2.550890000e+02
2.547230000e+02
2.543570000e+02
2.539910000e+02
2.536250000e+02
2.532590000e+02
2.528930000e+02
2.525270000e+02
2.521610000e+02
2.606150000e+02
2.602490000e+02
2.598830000e+02
2.595170000e+02
2.591510000e+02
2.587850000e+02
2.584190000e+02
2.580530000e+02
2.576870000e+02
2.573210000e+02
2.569550000e+02
2.565890000e+02
2.562230000e+02
2.558570000e+02
2.554910000e+02
2.551250000e+02
2.547590000e+02
2.543930000e+02
2.540270000e+02
2.536610000e+02
2.532950000e+02
2.529290000e+02
2.525630000e+02
2.521970000e+02
2.606510000e+02
2.602850000e+02
2.599190000e+02
2.595530000e+02
2.591870000e+02
2.588210000e+02
2.584550000e+02
2.580890000e+02
2.577230000e+02
2.573570000e+02
2.569910000e+02
2.566250000e+02
2.562590000e+02
2.558930000e+02
2.555270000e+02
2.551610000e+02
2.547950000e+02
2.544290000e+02
2.540630000e+02
2.536970000e+02
2.533310000e+02
2.529650000e+02
2.525990000e+02
2.522330000e+02
2.606870000e+02
2.603210000e+02
2.599550000e+02
2.595890000e+02
2.592230000e+02
2.588570000e+02
2.584910000e+02
2.581250000e+02
2.577590000e+02
2.573930000e+02
2.570270000e+02
2.566610000e+02
2.562950000e+02
2.559290000e+02
2.555630000e+02
2.551970000e+02
2.548310000e+02
2.544650000e+02
2.540990000e+02
2.537330000e+02
2.533670000e+02
2.530010000e+02
2.526350000e+02
2.522690000e+02
2.607230000e+02
2.603570000e+02
2.599910000e+02
2.596250000e+02
2.592590000e+02
2.588930000e+02
2.585270000e+02
2.581610000e+02
2.577950000e+02
2.574290000e+02
2.570630000e+02
2.566970000e+02
2.563310000e+02
2.559650000e+02
2.555990000e+02
2.552330000e+02
2.548670000e+02
2.545010000e+02
2.541350000e+02
2.537690000e+02
2.534030000e+02
2.530370000e+02
2.526710000e+02
2.523050000e+02
2.607590000e+02
2.603930000e+02
2.600270000e+02
2.596610000e+02
2.592950000e+02
2.589290000e+02
2.585630000e+02
2.581970000e+02
2.578310000e+02
2.574650000e+02
2.570990000e+02
2.567330000e+02
2.563670000e+02
2.560010000e+02
2.556350000e+02
2.552690000e+02
2.549030000e+02
2.545370000e+02
2.541710000e+02
2.538050000e+02
2.534390000e+02
2.530730000e+02
2.527070000e+02
2.523410000e+02
2.607950000e+02
2.604290000e+02
2.600630000e+02
2.596970000e+02
2.593310000e+02
2.589650000e+02
2.585990000e+02
2.582330000e+02
2.578670000e+02
2.575010000e+02
2.571350000e+02
2.567690000e+02
2.564030000e+02
2.560370000e+02
2.556710000e+02
2.553050000e+02
2.549390000e+02
2.545730000e+02
2.542070000e+02
2.538410000e+02
2.534750000e+02
2.531090000e+02
2.527430000e+02
2.523770000e+02
2.607350000e+02
2.603690000e+02
2.600030000e+02
2.596370000e+02
2.592710000e+02
2.589050000e+02
2.585390000e+02
2.581730000e+02
2.578070000e+02
2.574410000e+02
2.570750000e+02
2.567090000e+02
2.563430000e+02
2.559770000e+02
2.556110000e+02
2.552450000e+02
2.548790000e+02
2.545130000e+02
2.541470000e+02
2.537810000e+02
2.534150000e+02
2.530490000e+02
2.526830000e+02
2.523170000e+02
2.607710000e+02
2.604050000e+02
2.600390000e+02
2.596730000e+02
2.593070000e+02
2.589410000e+02
2.585750000e+02
2.582090000e+02
2.578430000e+02
2.574770000e+02
2.571110000e+02
2.567450000e+02
2.563790000e+02
2.560130000e+02
2.556470000e+02
2.552810000e+02
2.549150000e+02
2.545490000e+02
2.541830000e+02
2.538170000e+02
2.534510000e+02
2.530850000e+02
2.527190000e+02
2.523530000e+02
2.608070000e+02
2.604410000e+02
2.600750000e+02
2.597090000e+02
2.593430000e+02
2.589770000e+02
2.586110000e+02
2.582450000e+02
2.578790000e+02
2.575130000e+02
2.571470000e+02
2.567810000e+02
2.564150000e+02
2.560490000e+02
2.556830000e+02
2.553170000e+02
2.549510000e+02
2.545850000e+02
2.542190000e+02
2.538530000e+02
2.534870000e+02
2.531210000e+02
2.527550000e+02
2.523890000e+02
2.608430000e+02
2.604770000e+02
2.601110000e+02
2.597450000e+02
2.593790000e+02
2.590130000e+02
2.586470000e+02
2.582810000e+02
2.579150000e+02
2.575490000e+02
2.571830000e+02
2.568170000e+02
2.564510000e+02
2.560850000e+02
2.557190000e+02
2.553530000e+02
2.549870000e+02
2.546210000e+02
2.542550000e+02
2.538890000e+02
2.535230000e+02
2.531570000e+02
2.527910000e+02
2.524250000e+02
2.608790000e+02
2.605130000e+02
2.601470000e+02
2.597810000e+02
2.594150000e+02
2.590490000e+02
2.586830000e+02
2.583170000e+02
2.579510000e+02
2.575850000e+02
2.572190000e+02
2.568530000e+02
2.564870000e+02
2.561210000e+02
2.557550000e+02
2.553890000e+02
2.550230000e+02
2.546570000e+02
2.542910000e+02
2.539250000e+02
2.535590000e+02
2.531930000e+02
2.528270000e+02
2.524610000e+02
2.609150000e+02
2.605490000e+02
2.601830000e+02
2.598170000e+02
2.594510000e+02
2.590850000e+02
2.587190000e+02
2.583530000e+02
2.579870000e+02
2.576210000e+02
2.572550000e+02
2.568890000e+02
2.565230000e+02
2.561570000e+02
2.557910000e+02
2.554250000e+02
2.550590000e+02
2.546930000e+02
2.543270000e+02
2.539610000e+02
2.535950000e+02
2.532290000e+02
2.528630000e+02
2.524970000e+02
2.609510000e+02
2.605850000e+02
2.602190000e+02
2.598530000e+02
2.594870000e+02
2.591210000e+02
2.587550000e+02
2.583890000e+02
2.580230000e+02
2.576570000e+02
2.572910000e+02
2.569250000e+02
2.565590000e+02
2.561930000e+02
2.558270000e+02
2.554610000e+02
2.550950000e+02
2.547290000e+02
2.543630000e+02
2.539970000e+02
2.536310000e+02
2.532650000e+02
2.528990000e+02
2.525330000e+02
2.609870000e+02
2.606210000e+02
2.602550000e+02
2.598890000e+02
2.595230000e+02
2.591570000e+02
2.587910000e+02
2.584250000e+02
2.580590000e+02
2.576930000e+02
2.573270000e+02
2.569610000e+02
2.565950000e+02
2.562290000e+02
2.558630000e+02
2.554970000e+02
2.551310000e+02
2.547650000e+02
2.543990000e+02
2.540330000e+02
2.536670000e+02
2.533010000e+02
2.529350000e+02
2.525690000e+02
2.610230000e+02
2.606570000e+02
2.602910000e+02
2.599250000e+02
2.595590000e+02
2.591930000e+02
2.588270000e+02
2.584610000e+02
2.580950000e+02
2.577290000e+02
2.573630000e+02
2.569970000e+02
2.566310000e+02
2.562650000e+02
2.558990000e+02
2.555330000e+02
2.551670000e+02
2.548010000e+02
2.544350000e+02
2.540690000e+02
2.537030000e+02
2.533370000e+02
2.529710000e+02
2.526050000e+02
2.610590000e+02
2.606930000e+02
2.603270000e+02
2.599610000e+02
2.595950000e+02
2.592290000e+02
2.588630000e+02
2.584970000e+02
2.581310000e+02
2.577650000e+02
2.573990000e+02
2.570330000e+02
2.566670000e+02
2.563010000e+02
2.559350000e+02
2.555690000e+02
2.552030000e+02
2.548370000e+02
2.544710000e+02
2.541050000e+02
2.537390000e+02
2.533730000e+02
2.530070000e+02
2.526410000e+02
2.610950000e+02
2.607290000e+02
2.603630000e+02
2.599970000e+02
2.596310000e+02
2.592650000e+02
2.588990000e+02
2.585330000e+02
2.581670000e+02
2.578010000e+02
2.574350000e+02
2.570690000e+02
2.567030000e+02
2.563370000e+02
2.559710000e+02
2.556050000e+02
2.552390000e+02
2.548730000e+02
2.545070000e+02
2.541410000e+02
2.537750000e+02
2.534090000e+02
2.530430000e+02
2.526770000e+02
2.611310000e+02
2.607650000e+02
2.603990000e+02
2.600330000e+02
2.596670000e+02
2.593010000e+02
2.589350000e+02
2.585690000e+02
2.582030000e+02
2.578370000e+02
2.574710000e+02
2.571050000e+02
2.567390000e+02
2.563730000e+02
2.560070000e+02
2.556410000e+02
2.552750000e+02
2.549090000e+02
2.545430000e+02
2.541770000e+02
2.538110000e+02
2.534450000e+02
2.530790000e+02
2.527130000e+02
2.611670000e+02
2.608010000e+02
2.604350000e+02
2.600690000e+02
2.597030000e+02
2.593370000e+02
2.589710000e+02
2.586050000e+02
2.582390000e+02
2.578730000e+02
2.575070000e+02
2.571410000e+02
2.567750000e+02
2.564090000e+02
2.560430000e+02
2.556770000e+02
2.553110000e+02
2.549450000e+02
2.545790000e+02
2.542130000e+02
2.538470000e+02
2.534810000e+02
2.531150000e+02
2.527490000e+02
2.612030000e+02
2.608370000e+02
2.604710000e+02
2.601050000e+02
2.597390000e+02
2.593730000e+02
2.590070000e+02
2.586410000e+02
2.582750000e+02
2.579090000e+02
2.575430000e+02
2.571770000e+02
2.568110000e+02
2.564450000e+02
2.560790000e+02
2.557130000e+02
2.553470000e+02
2.549810000e+02
2.546150000e+02
2.542490000e+02
2.538830000e+02
2.535170000e+02
2.531510000e+02
2.527850000e+02
2.612390000e+02
2.608730000e+02
2.605070000e+02
2.601410000e+02
2.597750000e+02
2.594090000e+02
2.590430000e+02
2.586770000e+02
2.583110000e+02
2.579450000e+02
2.575790000e+02
2.572130000e+02
2.568470000e+02
2.564810000e+02
2.561150000e+02
2.557490000e+02
2.553830000e+02
2.550170000e+02
2.546510000e+02
2.542850000e+02
2.539190000e+02
2.535530000e+02
2.531870000e+02
2.528210000e+02
2.612750000e+02
2.609090000e+02
2.605430000e+02
2.601770000e+02
2.598110000e+02
2.594450000e+02
2.590790000e+02
2.587130000e+02
2.583470000e+02
2.579810000e+02
2.576150000e+02
2.572490000e+02
2.568830000e+02
2.565170000e+02
2.561510000e+02
2.557850000e+02
2.554190000e+02
2.550530000e+02
2.546870000e+02
2.543210000e+02
2.539550000e+02
2.535890000e+02
2.532230000e+02
2.528570000e+02
2.612150000e+02
2.608490000e+02
2.604830000e+02
2.601170000e+02
2.597510000e+02
2.593850000e+02
2.590190000e+02
2.586530000e+02
2.582870000e+02
2.579210000e+02
2.575550000e+02
2.571890000e+02
2.568230000e+02
2.564570000e+02
2.560910000e+02
2.557250000e+02
2.553590000e+02
2.549930000e+02
2.546270000e+02
2.542610000e+02
2.538950000e+02
2.535290000e+02
2.531630000e+02
2.527970000e+02
2.612510000e+02
2.608850000e+02
2.605190000e+02
2.601530000e+02
2.597870000e+02
2.594210000e+02
2.590550000e+02
2.586890000e+02
2.583230000e+02
2.579570000e+02
2.575910000e+02
2.572250000e+02
2.568590000e+02
2.564930000e+02
2.561270000e+02
2.557610000e+02
2.553950000e+02
2.550290000e+02
2.546630000e+02
2.542970000e+02
2.539310000e+02
2.535650000e+02
2.531990000e+02
2.528330000e+02
2.612870000e+02
2.609210000e+02
2.605550000e+02
2.601890000e+02
2.598230000e+02
2.594570000e+02
2.590910000e+02
2.587250000e+02
2.583590000e+02
2.579930000e+02
2.576270000e+02
2.572610000e+02
2.568950000e+02
2.565290000e+02
2.561630000e+02
2.557970000e+02
2.554310000e+02
2.550650000e+02
2.546990000e+02
2.543330000e+02
2.539670000e+02
2.536010000e+02
2.532350000e+02
2.528690000e+02
2.613230000e+02
2.609570000e+02
2.605910000e+02
2.602250000e+02
2.598590000e+02
2.594930000e+02
2.591270000e+02
2.587610000e+02
2.583950000e+02
2.580290000e+02
2.576630000e+02
2.572970000e+02
2.569310000e+02
2.565650000e+02
2.561990000e+02
2.558330000e+02
2.554670000e+02
2.551010000e+02
2.547350000e+02
2.543690000e+02
2.540030000e+02
2.536370000e+02
2.532710000e+02
2.529050000e+02
2.613590000e+02
2.609930000e+02
2.606270000e+02
2.602610000e+02
2.598950000e+02
2.595290000e+02
2.591630000e+02
2.587970000e+02
2.584310000e+02
2.580650000e+02
2.576990000e+02
2.573330000e+02
2.569670000e+02
2.566010000e+02
2.562350000e+02
2.558690000e+02
2.555030000e+02
2.551370000e+02
2.547710000e+02
2.544050000e+02
2.540390000e+02
2.536730000e+02
2.533070000e+02
2.529410000e+02
2.613950000e+02
2.610290000e+02
2.606630000e+02
2.602970000e+02
2.599310000e+02
2.595650000e+02
2.591990000e+02
2.588330000e+02
2.584670000e+02
2.581010000e+02
2.577350000e+02
2.573690000e+02
2.570030000e+02
2.566370000e+02
2.562710000e+02
2.559050000e+02
2.555390000e+02
2.551730000e+02
2.548070000e+02
2.544410000e+02
2.540750000e+02
2.537090000e+02
2.533430000e+02
2.529770000e+02
2.614310000e+02
2.610650000e+02
2.606990000e+02
2.603330000e+02
2.599670000e+02
2.596010000e+02
2.592350000e+02
2.588690000e+02
2.585030000e+02
2.581370000e+02
2.577710000e+02
2.574050000e+02
2.570390000e+02
2.566730000e+02
2.563070000e+02
2.559410000e+02
2.555750000e+02
2.552090000e+02
2.548430000e+02
2.544770000e+02
2.541110000e+02
2.537450000e+02
2.533790000e+02
2.530130000e+02
2.614670000e+02
2.611010000e+02
2.607350000e+02
2.603690000e+02
2.600030000e+02
2.596370000e+02
2.592710000e+02
2.589050000e+02
2.585390000e+02
2.581730000e+02
2.578070000e+02
2.574410000e+02
2.570750000e+02
2.567090000e+02
2.563430000e+02
2.559770000e+02
2.556110000e+02
2.552450000e+02
2.548790000e+02
2.545130000e+02
2.541470000e+02
2.537810000e+02
2.534150000e+02
2.530490000e+02
2.615030000e+02
2.611370000e+02
2.607710000e+02
2.604050000e+02
2.600390000e+02
2.596730000e+02
2.593070000e+02
2.589410000e+02
2.585750000e+02
2.582090000e+02
2.578430000e+02
2.574770000e+02
2.571110000e+02
2.567450000e+02
2.563790000e+02
2.560130000e+02
2.556470000e+02
2.552810000e+02
2.549150000e+02
2.545490000e+02
2.541830000e+02
2.538170000e+02
2.534510000e+02
2.530850000e+02
2.615390000e+02
2.611730000e+02
2.608070000e+02
2.604410000e+02
2.600750000e+02
2.597090000e+02
2.593430000e+02
2.589770000e+02
2.586110000e+02
2.582450000e+02
2.578790000e+02
2.575130000e+02
2.571470000e+02
2.567810000e+02
2.564150000e+02
2.560490000e+02
2.556830000e+02
2.553170000e+02
2.549510000e+02
2.545850000e+02
2.542190000e+02
2.538530000e+02
2.534870000e+02
2.531210000e+02
2.615750000e+02
2.612090000e+02
2.608430000e+02
2.604770000e+02
2.601110000e+02
2.597450000e+02
2.593790000e+02
2.590130000e+02
2.586470000e+02
2.582810000e+02
2.579150000e+02
2.575490000e+02
2.571830000e+02
2.568170000e+02
2.564510000e+02
2.560850000e+02
2.557190000e+02
2.553530000e+02
2.549870000e+02
2.546210000e+02
2.542550000e+02
2.538890000e+02
2.535230000e+02
2.531570000e+02
2.616110000e+02
2.612450000e+02
2.608790000e+02
2.605130000e+02
2.601470000e+02
2.597810000e+02
2.594150000e+02
2.590490000e+02
2.586830000e+02
2.583170000e+02
2.579510000e+02
2.575850000e+02
2.572190000e+02
2.568530000e+02
2.564870000e+02
2.561210000e+02
2.557550000e+02
2.553890000e+02
2.550230000e+02
2.546570000e+02
2.542910000e+02
2.539250000e+02
2.535590000e+02
2.531930000e+02
2.616470000e+02
2.612810000e+02
2.609150000e+02
2.605490000e+02
2.601830000e+02
2.598170000e+02
2.594510000e+02
2.590850000e+02
2.587190000e+02
2.583530000e+02
2.579870000e+02
2.576210000e+02
2.572550000e+02
2.568890000e+02
2.565230000e+02
2.561570000e+02
2.557910000e+02
2.554250000e+02
2.550590000e+02
2.546930000e+02
2.543270000e+02
2.539610000e+02
2.535950000e+02
2.532290000e+02
2.616830000e+02
2.613170000e+02
2.609510000e+02
2.605850000e+02
2.602190000e+02
2.598530000e+02
2.594870000e+02
2.591210000e+02
2.587550000e+02
2.583890000e+02
2.580230000e+02
2.576570000e+02
2.572910000e+02
2.569250000e+02
2.565590000e+02
2.561930000e+02
2.558270000e+02
2.554610000e+02
2.550950000e+02
2.547290000e+02
2.543630000e+02
2.539970000e+02
2.536310000e+02
2.532650000e+02
2.617190000e+02
2.613530000e+02
2.609870000e+02
2.606210000e+02
2.602550000e+02
2.598890000e+02
2.595230000e+02
2.591570000e+02
2.587910000e+02
2.584250000e+02
2.580590000e+02
2.576930000e+02
2.573270000e+02
2.569610000e+02
2.565950000e+02
2.562290000e+02
2.558630000e+02
2.554970000e+02
2.551310000e+02
2.547650000e+02
2.543990000e+02
2.540330000e+02
2.536670000e+02
2.533010000e+02
2.617550000e+02
2.613890000e+02
2.610230000e+02
2.606570000e+02
2.602910000e+02
2.599250000e+02
2.595590000e+02
2.591930000e+02
2.588270000e+02
2.584610000e+02
2.580950000e+02
2.577290000e+02
2.573630000e+02
2.569970000e+02
2.566310000e+02
2.562650000e+02
2.558990000e+02
2.555330000e+02
2.551670000e+02
2.548010000e+02
2.544350000e+02
2.540690000e+02
2.537030000e+02
2.533370000e+02
2.616950000e+02
2.613290000e+02
2.609630000e+02
2.605970000e+02
2.602310000e+02
2.598650000e+02
2.594990000e+02
2.591330000e+02
2.587670000e+02
2.584010000e+02
2.580350000e+02
2.576690000e+02
2.573030000e+02
2.569370000e+02
2.565710000e+02
2.562050000e+02
2.558390000e+02
2.554730000e+02
2.551070000e+02
2.547410000e+02
2.543750000e+02
2.540090000e+02
2.536430000e+02
2.532770000e+02
2.617310000e+02
2.613650000e+02
2.609990000e+02
2.606330000e+02
2.602670000e+02
2.599010000e+02
2.595350000e+02
2.591690000e+02
2.588030000e+02
2.584370000e+02
2.580710000e+02
2.577050000e+02
2.573390000e+02
2.569730000e+02
2.566070000e+02
2.562410000e+02
2.558750000e+02
2.555090000e+02
2.551430000e+02
2.547770000e+02
2.544110000e+02
2.540450000e+02
2.536790000e+02
2.533130000e+02
2.617670000e+02
2.614010000e+02
2.610350000e+02
2.606690000e+02
2.603030000e+02
2.599370000e+02
2.595710000e+02
2.592050000e+02
2.588390000e+02
2.584730000e+02
2.581070000e+02
2.577410000e+02
2.573750000e+02
2.570090000e+02
2.566430000e+02
2.562770000e+02
2.559110000e+02
2.555450000e+02
2.551790000e+02
2.548130000e+02
2.544470000e+02
2.540810000e+02
2.537150000e+02
2.533490000e+02
2.618030000e+02
2.614370000e+02
2.610710000e+02
2.607050000e+02
2.603390000e+02
2.599730000e+02
2.596070000e+02
2.592410000e+02
2.588750000e+02
2.585090000e+02
2.581430000e+02
2.577770000e+02
2.574110000e+02
2.570450000e+02
2.566790000e+02
2.563130000e+02
2.559470000e+02
2.555810000e+02
2.552150000e+02
2.548490000e+02
2.544830000e+02
2.541170000e+02
2.537510000e+02
2.533850000e+02
2.618390000e+02
2.614730000e+02
2.611070000e+02
2.607410000e+02
2.603750000e+02
2.600090000e+02
2.596430000e+02
2.592770000e+02
2.589110000e+02
2.585450000e+02
2.581790000e+02
2.578130000e+02
2.574470000e+02
2.570810000e+02
2.567150000e+02
2.563490000e+02
2.559830000e+02
2.556170000e+02
2.552510000e+02
2.548850000e+02
2.545190000e+02
2.541530000e+02
2.537870000e+02
2.534210000e+02
2.618750000e+02
2.615090000e+02
2.611430000e+02
2.607770000e+02
2.604110000e+02
2.600450000e+02
2.596790000e+02
2.593130000e+02
2.589470000e+02
2.585810000e+02
2.582150000e+02
2.578490000e+02
2.574830000e+02
2.571170000e+02
2.567510000e+02
2.563850000e+02
2.560190000e+02
2.556530000e+02
2.552870000e+02
2.549210000e+02
2.545550000e+02
2.541890000e+02
2.538230000e+02
2.534570000e+02
2.619110000e+02
2.615450000e+02
2.611790000e+02
2.608130000e+02
2.604470000e+02
2.600810000e+02
2.597150000e+02
2.593490000e+02
2.589830000e+02
2.586170000e+02
2.582510000e+02
2.578850000e+02
2.575190000e+02
2.571530000e+02
2.567870000e+02
2.564210000e+02
2.560550000e+02
2.556890000e+02
2.553230000e+02
2.549570000e+02
2.545910000e+02
2.542250000e+02
2.538590000e+02
2.534930000e+02
2.619470000e+02
2.615810000e+02
2.612150000e+02
2.608490000e+02
2.604830000e+02
2.601170000e+02
2.597510000e+02
2.593850000e+02
2.590190000e+02
2.586530000e+02
2.582870000e+02
2.579210000e+02
2.575550000e+02
2.571890000e+02
2.568230000e+02
2.564570000e+02
2.560910000e+02
2.557250000e+02
2.553590000e+02
2.549930000e+02
2.546270000e+02
2.542610000e+02
2.538950000e+02
2.535290000e+02
2.619830000e+02
2.616170000e+02
2.612510000e+02
2.608850000e+02
2.605190000e+02
2.601530000e+02
2.597870000e+02
2.594210000e+02
2.590550000e+02
2.586890000e+02
2.583230000e+02
2.579570000e+02
2.575910000e+02
2.572250000e+02
2.568590000e+02
2.564930000e+02
2.561270000e+02
2.557610000e+02
2.553950000e+02
2.550290000e+02
2.546630000e+02
2.542970000e+02
2.539310000e+02
2.535650000e+02
2.620190000e+02
2.616530000e+02
2.612870000e+02
2.609210000e+02
2.605550000e+02
2.601890000e+02
2.598230000e+02
2.594570000e+02
2.590910000e+02
2.587250000e+02
2.583590000e+02
2.579930000e+02
2.576270000e+02
2.572610000e+02
2.568950000e+02
2.565290000e+02
2.561630000e+02
2.557970000e+02
2.554310000e+02
2.550650000e+02
2.546990000e+02
2.543330000e+02
2.539670000e+02
2.536010000e+02
2.620550000e+02
2.616890000e+02
2.613230000e+02
2.609570000e+02
2.605910000e+02
2.602250000e+02
2.598590000e+02
2.594930000e+02
2.591270000e+02
2.587610000e+02
2.583950000e+02
2.580290000e+02
2.576630000e+02
2.572970000e+02
2.569310000e+02
2.565650000e+02
2.561990000e+02
2.558330000e+02
2.554670000e+02
2.551010000e+02
2.547350000e+02
2.543690000e+02
2.540030000e+02
2.536370000e+02
2.620910000e+02
2.617250000e+02
2.613590000e+02
2.609930000e+02
2.606270000e+02
2.602610000e+02
2.598950000e+02
2.595290000e+02
2.591630000e+02